[Molden Format]
[N_Atoms]
                   13
[Atoms] (AU)
C1          1      6          52.89319801     50.36769999     51.24732404
C2          2      6          51.84097394     55.04723824     53.43717646
C3          3      6          51.07039465     51.93659597     50.18882985
C4          4      6          54.16337743     51.11849763     53.43066258
C5          5      6          53.63247966     53.44895891     54.51151978
C6          6      6          50.56754798     54.27732980     51.27086624
O7          7      8          53.57985079     48.11089645     50.19616388
H8          8      1          52.42326092     47.62649918     48.83150383
H9          9      1          50.10017713     51.35672973     48.48628299
H10        10      1          49.19538193     55.51615677     50.38982868
H11        11      1          51.45948737     56.87174614     54.27378090
H12        12      1          54.65280704     54.03883503     56.17900089
H13        13      1          55.58353118     49.88464631     54.23394736
[5D]
[7F]
[9G]
[Charge] (Mulliken)
  0.13819375283648494     
  -4.7223288893677662E-002
   3.0519158572937855E-002
  -6.3054823800838378E-002
  -4.3429732431438772E-002
  -9.9801148552868035E-002
 -0.41112455223197131     
  0.27156134177906388     
   1.0323120436143696E-002
   4.3963565951915973E-002
   6.8415520520057171E-002
   8.2122512748357246E-002
   1.9534573062726879E-002
[GTO] (AU)
   1
   s   9
  0.666500000E+04  0.692000179E-03
  0.100000000E+04  0.532900138E-02
  0.228000000E+03  0.270770070E-01
  0.647100000E+02  0.101718026E+00
  0.210600000E+02  0.274740071E+00
  0.749500000E+01  0.448564116E+00
  0.279700000E+01  0.285074074E+00
  0.521500000E+00  0.152040039E-01
  0.159600000E+00 -0.319100083E-02
   s   9
  0.666500000E+04 -0.146000064E-03
  0.100000000E+04 -0.115400051E-02
  0.228000000E+03 -0.572500252E-02
  0.647100000E+02 -0.233120103E-01
  0.210600000E+02 -0.639550281E-01
  0.749500000E+01 -0.149981066E+00
  0.279700000E+01 -0.127262056E+00
  0.521500000E+00  0.544529240E+00
  0.159600000E+00  0.580496255E+00
   s   1
  0.159600000E+00  0.100000000E+01
   p   4
  0.943900000E+01  0.381090213E-01
  0.200200000E+01  0.209480117E+00
  0.545600000E+00  0.508557284E+00
  0.151700000E+00  0.468842262E+00
   p   1
  0.151700000E+00  0.100000000E+01
   d   1
  0.550000000E+00  0.100000000E+01
 
   2
   s   9
  0.666500000E+04  0.692000179E-03
  0.100000000E+04  0.532900138E-02
  0.228000000E+03  0.270770070E-01
  0.647100000E+02  0.101718026E+00
  0.210600000E+02  0.274740071E+00
  0.749500000E+01  0.448564116E+00
  0.279700000E+01  0.285074074E+00
  0.521500000E+00  0.152040039E-01
  0.159600000E+00 -0.319100083E-02
   s   9
  0.666500000E+04 -0.146000064E-03
  0.100000000E+04 -0.115400051E-02
  0.228000000E+03 -0.572500252E-02
  0.647100000E+02 -0.233120103E-01
  0.210600000E+02 -0.639550281E-01
  0.749500000E+01 -0.149981066E+00
  0.279700000E+01 -0.127262056E+00
  0.521500000E+00  0.544529240E+00
  0.159600000E+00  0.580496255E+00
   s   1
  0.159600000E+00  0.100000000E+01
   p   4
  0.943900000E+01  0.381090213E-01
  0.200200000E+01  0.209480117E+00
  0.545600000E+00  0.508557284E+00
  0.151700000E+00  0.468842262E+00
   p   1
  0.151700000E+00  0.100000000E+01
   d   1
  0.550000000E+00  0.100000000E+01
 
   3
   s   9
  0.666500000E+04  0.692000179E-03
  0.100000000E+04  0.532900138E-02
  0.228000000E+03  0.270770070E-01
  0.647100000E+02  0.101718026E+00
  0.210600000E+02  0.274740071E+00
  0.749500000E+01  0.448564116E+00
  0.279700000E+01  0.285074074E+00
  0.521500000E+00  0.152040039E-01
  0.159600000E+00 -0.319100083E-02
   s   9
  0.666500000E+04 -0.146000064E-03
  0.100000000E+04 -0.115400051E-02
  0.228000000E+03 -0.572500252E-02
  0.647100000E+02 -0.233120103E-01
  0.210600000E+02 -0.639550281E-01
  0.749500000E+01 -0.149981066E+00
  0.279700000E+01 -0.127262056E+00
  0.521500000E+00  0.544529240E+00
  0.159600000E+00  0.580496255E+00
   s   1
  0.159600000E+00  0.100000000E+01
   p   4
  0.943900000E+01  0.381090213E-01
  0.200200000E+01  0.209480117E+00
  0.545600000E+00  0.508557284E+00
  0.151700000E+00  0.468842262E+00
   p   1
  0.151700000E+00  0.100000000E+01
   d   1
  0.550000000E+00  0.100000000E+01
 
   4
   s   9
  0.666500000E+04  0.692000179E-03
  0.100000000E+04  0.532900138E-02
  0.228000000E+03  0.270770070E-01
  0.647100000E+02  0.101718026E+00
  0.210600000E+02  0.274740071E+00
  0.749500000E+01  0.448564116E+00
  0.279700000E+01  0.285074074E+00
  0.521500000E+00  0.152040039E-01
  0.159600000E+00 -0.319100083E-02
   s   9
  0.666500000E+04 -0.146000064E-03
  0.100000000E+04 -0.115400051E-02
  0.228000000E+03 -0.572500252E-02
  0.647100000E+02 -0.233120103E-01
  0.210600000E+02 -0.639550281E-01
  0.749500000E+01 -0.149981066E+00
  0.279700000E+01 -0.127262056E+00
  0.521500000E+00  0.544529240E+00
  0.159600000E+00  0.580496255E+00
   s   1
  0.159600000E+00  0.100000000E+01
   p   4
  0.943900000E+01  0.381090213E-01
  0.200200000E+01  0.209480117E+00
  0.545600000E+00  0.508557284E+00
  0.151700000E+00  0.468842262E+00
   p   1
  0.151700000E+00  0.100000000E+01
   d   1
  0.550000000E+00  0.100000000E+01
 
   5
   s   9
  0.666500000E+04  0.692000179E-03
  0.100000000E+04  0.532900138E-02
  0.228000000E+03  0.270770070E-01
  0.647100000E+02  0.101718026E+00
  0.210600000E+02  0.274740071E+00
  0.749500000E+01  0.448564116E+00
  0.279700000E+01  0.285074074E+00
  0.521500000E+00  0.152040039E-01
  0.159600000E+00 -0.319100083E-02
   s   9
  0.666500000E+04 -0.146000064E-03
  0.100000000E+04 -0.115400051E-02
  0.228000000E+03 -0.572500252E-02
  0.647100000E+02 -0.233120103E-01
  0.210600000E+02 -0.639550281E-01
  0.749500000E+01 -0.149981066E+00
  0.279700000E+01 -0.127262056E+00
  0.521500000E+00  0.544529240E+00
  0.159600000E+00  0.580496255E+00
   s   1
  0.159600000E+00  0.100000000E+01
   p   4
  0.943900000E+01  0.381090213E-01
  0.200200000E+01  0.209480117E+00
  0.545600000E+00  0.508557284E+00
  0.151700000E+00  0.468842262E+00
   p   1
  0.151700000E+00  0.100000000E+01
   d   1
  0.550000000E+00  0.100000000E+01
 
   6
   s   9
  0.666500000E+04  0.692000179E-03
  0.100000000E+04  0.532900138E-02
  0.228000000E+03  0.270770070E-01
  0.647100000E+02  0.101718026E+00
  0.210600000E+02  0.274740071E+00
  0.749500000E+01  0.448564116E+00
  0.279700000E+01  0.285074074E+00
  0.521500000E+00  0.152040039E-01
  0.159600000E+00 -0.319100083E-02
   s   9
  0.666500000E+04 -0.146000064E-03
  0.100000000E+04 -0.115400051E-02
  0.228000000E+03 -0.572500252E-02
  0.647100000E+02 -0.233120103E-01
  0.210600000E+02 -0.639550281E-01
  0.749500000E+01 -0.149981066E+00
  0.279700000E+01 -0.127262056E+00
  0.521500000E+00  0.544529240E+00
  0.159600000E+00  0.580496255E+00
   s   1
  0.159600000E+00  0.100000000E+01
   p   4
  0.943900000E+01  0.381090213E-01
  0.200200000E+01  0.209480117E+00
  0.545600000E+00  0.508557284E+00
  0.151700000E+00  0.468842262E+00
   p   1
  0.151700000E+00  0.100000000E+01
   d   1
  0.550000000E+00  0.100000000E+01
 
   7
   s   9
  0.117200000E+05  0.710000250E-03
  0.175900000E+04  0.547000193E-02
  0.400800000E+03  0.278370098E-01
  0.113700000E+03  0.104800037E+00
  0.370300000E+02  0.283062100E+00
  0.132700000E+02  0.448719158E+00
  0.502500000E+01  0.270952096E+00
  0.101300000E+01  0.154580054E-01
  0.302300000E+00 -0.258500091E-02
   s   9
  0.117200000E+05 -0.160000015E-03
  0.175900000E+04 -0.126300012E-02
  0.400800000E+03 -0.626700060E-02
  0.113700000E+03 -0.257160025E-01
  0.370300000E+02 -0.709240068E-01
  0.132700000E+02 -0.165411016E+00
  0.502500000E+01 -0.116955011E+00
  0.101300000E+01  0.557368054E+00
  0.302300000E+00  0.572759055E+00
   s   1
  0.302300000E+00  0.100000000E+01
   p   4
  0.177000000E+02  0.430179924E-01
  0.385400000E+01  0.228912960E+00
  0.104600000E+01  0.508727910E+00
  0.275300000E+00  0.460530919E+00
   p   1
  0.275300000E+00  0.100000000E+01
   d   1
  0.118500000E+01  0.100000000E+01
 
   8
   s   4
  0.130100000E+02  0.196849900E-01
  0.196200000E+01  0.137976930E+00
  0.444600000E+00  0.478147757E+00
  0.122000000E+00  0.501239745E+00
   s   1
  0.122000000E+00  0.100000000E+01
   p   1
  0.727000000E+00  0.100000000E+01
 
   9
   s   4
  0.130100000E+02  0.196849900E-01
  0.196200000E+01  0.137976930E+00
  0.444600000E+00  0.478147757E+00
  0.122000000E+00  0.501239745E+00
   s   1
  0.122000000E+00  0.100000000E+01
   p   1
  0.727000000E+00  0.100000000E+01
 
  10
   s   4
  0.130100000E+02  0.196849900E-01
  0.196200000E+01  0.137976930E+00
  0.444600000E+00  0.478147757E+00
  0.122000000E+00  0.501239745E+00
   s   1
  0.122000000E+00  0.100000000E+01
   p   1
  0.727000000E+00  0.100000000E+01
 
  11
   s   4
  0.130100000E+02  0.196849900E-01
  0.196200000E+01  0.137976930E+00
  0.444600000E+00  0.478147757E+00
  0.122000000E+00  0.501239745E+00
   s   1
  0.122000000E+00  0.100000000E+01
   p   1
  0.727000000E+00  0.100000000E+01
 
  12
   s   4
  0.130100000E+02  0.196849900E-01
  0.196200000E+01  0.137976930E+00
  0.444600000E+00  0.478147757E+00
  0.122000000E+00  0.501239745E+00
   s   1
  0.122000000E+00  0.100000000E+01
   p   1
  0.727000000E+00  0.100000000E+01
 
  13
   s   4
  0.130100000E+02  0.196849900E-01
  0.196200000E+01  0.137976930E+00
  0.444600000E+00  0.478147757E+00
  0.122000000E+00  0.501239745E+00
   s   1
  0.122000000E+00  0.100000000E+01
   p   1
  0.727000000E+00  0.100000000E+01
 
[MO]
Sym=     1a  
Ene=   -20.5780
Spin= Alpha
Occup=    2.00000
   1         0.00028436
   2         0.00104477
   3        -0.00036454
   4         0.00010329
   5        -0.00029512
   6        -0.00012436
   7         0.00059116
   8        -0.00416547
   9        -0.00261670
  10         0.00010466
  11         0.00020114
  12        -0.00011065
  13         0.00015466
  14         0.00001560
  15        -0.00004664
  16        -0.00016709
  17         0.00056721
  18        -0.00000246
  19         0.00004953
  20         0.00003191
  21         0.00018253
  22        -0.00053640
  23        -0.00014881
  24        -0.00001923
  25        -0.00001627
  26         0.00004264
  27        -0.00004467
  28        -0.00001736
  29        -0.00007683
  30        -0.00028625
  31         0.00231295
  32        -0.00008083
  33         0.00001674
  34        -0.00008131
  35         0.00031984
  36         0.00162633
  37         0.00166881
  38         0.00022341
  39         0.00022730
  40         0.00007675
  41         0.00011033
  42         0.00015425
  43        -0.00012996
  44        -0.00046522
  45         0.00345836
  46         0.00007888
  47        -0.00003044
  48         0.00006940
  49        -0.00139363
  50         0.00168925
  51        -0.00040150
  52        -0.00009261
  53         0.00013210
  54        -0.00017923
  55         0.00006474
  56        -0.00021985
  57         0.00000351
  58        -0.00000375
  59        -0.00204114
  60         0.00001193
  61         0.00005751
  62         0.00005786
  63         0.00004239
  64         0.00049828
  65         0.00039727
  66        -0.00005518
  67        -0.00003436
  68        -0.00003376
  69        -0.00002193
  70        -0.00006710
  71         0.00000529
  72         0.00001063
  73        -0.00193995
  74        -0.00004189
  75         0.00002922
  76        -0.00003168
  77        -0.00011064
  78         0.00067306
  79         0.00032262
  80         0.00003574
  81        -0.00000567
  82         0.00009310
  83        -0.00002651
  84         0.00005325
  85         1.00091811
  86         0.00423101
  87        -0.00678866
  88        -0.00165008
  89         0.00125226
  90        -0.00036133
  91         0.00172323
  92        -0.00232916
  93        -0.00029082
  94         0.00006447
  95         0.00006057
  96        -0.00005237
  97         0.00008614
  98         0.00009281
  99         0.00043933
 100        -0.00050107
 101        -0.00032073
 102        -0.00004122
 103        -0.00033047
 104        -0.00008456
 105         0.00056042
 106        -0.00006227
 107        -0.00007830
 108        -0.00013641
 109         0.00020367
 110        -0.00009994
 111         0.00002664
 112        -0.00003311
 113         0.00001131
 114         0.00001971
 115         0.00012494
 116        -0.00001009
 117         0.00002920
 118         0.00000758
 119         0.00017742
 120        -0.00011162
 121        -0.00001998
 122        -0.00002063
 123        -0.00003832
 124        -0.00010958
 125         0.00052551
 126         0.00011009
 127        -0.00009924
 128         0.00005982
Sym=     2a  
Ene=   -11.3010
Spin= Alpha
Occup=    2.00000
   1         1.00141559
   2         0.00846414
   3        -0.01359923
   4         0.00036485
   5        -0.00122437
   6        -0.00059501
   7         0.00153367
   8        -0.00482396
   9        -0.00185588
  10        -0.00007358
  11         0.00024274
  12         0.00031609
  13        -0.00025348
  14        -0.00038615
  15        -0.00025443
  16        -0.00041304
  17         0.00342441
  18        -0.00000968
  19         0.00001886
  20         0.00000834
  21         0.00020596
  22        -0.00148667
  23        -0.00081634
  24         0.00000540
  25         0.00008096
  26         0.00003582
  27        -0.00002037
  28        -0.00005267
  29         0.00841306
  30        -0.00100840
  31         0.00701917
  32         0.00001975
  33        -0.00006213
  34        -0.00003244
  35         0.00252775
  36         0.00015249
  37         0.00329923
  38        -0.00000054
  39        -0.00005712
  40        -0.00013327
  41         0.00009727
  42         0.00007773
  43         0.00815749
  44        -0.00086981
  45         0.00640656
  46        -0.00000817
  47        -0.00007733
  48        -0.00007324
  49        -0.00264279
  50         0.00201545
  51        -0.00174934
  52         0.00003237
  53        -0.00002706
  54        -0.00015309
  55         0.00012307
  56         0.00009108
  57         0.00007446
  58         0.00020792
  59        -0.00360151
  60         0.00001747
  61        -0.00002516
  62         0.00001837
  63         0.00077522
  64         0.00055169
  65         0.00134218
  66         0.00001734
  67        -0.00001409
  68         0.00007956
  69        -0.00004456
  70         0.00002764
  71         0.00008219
  72         0.00017301
  73        -0.00347234
  74        -0.00001933
  75         0.00000603
  76        -0.00000518
  77        -0.00124005
  78         0.00083610
  79        -0.00100351
  80        -0.00006027
  81        -0.00002704
  82        -0.00000220
  83        -0.00003878
  84        -0.00006337
  85         0.00037573
  86         0.00186884
  87        -0.00419453
  88        -0.00002064
  89         0.00029841
  90         0.00021261
  91         0.00048303
  92        -0.00152381
  93        -0.00077347
  94         0.00005402
  95        -0.00006208
  96        -0.00024516
  97         0.00016099
  98         0.00014471
  99         0.00050433
 100        -0.00069251
 101        -0.00000170
 102         0.00022897
 103         0.00018625
 104         0.00035692
 105         0.00111529
 106         0.00004495
 107        -0.00000923
 108         0.00005423
 109        -0.00007358
 110        -0.00028316
 111         0.00002210
 112        -0.00003640
 113         0.00000113
 114         0.00002126
 115         0.00040455
 116        -0.00000365
 117         0.00003830
 118         0.00002238
 119        -0.00002876
 120        -0.00024900
 121        -0.00000450
 122        -0.00003729
 123        -0.00003309
 124         0.00033229
 125         0.00088163
 126        -0.00002563
 127        -0.00001947
 128        -0.00004674
Sym=     3a  
Ene=   -11.2420
Spin= Alpha
Occup=    2.00000
   1        -0.00069777
   2        -0.00013515
   3        -0.00045683
   4        -0.00000950
   5        -0.00000619
   6        -0.00000835
   7        -0.00045636
   8        -0.00016141
   9        -0.00073275
  10        -0.00003925
  11         0.00001776
  12         0.00000373
  13        -0.00003281
  14        -0.00006654
  15         0.03993834
  16        -0.00041128
  17         0.00305071
  18         0.00004628
  19         0.00002962
  20         0.00007187
  21        -0.00043361
  22        -0.00122198
  23        -0.00142421
  24        -0.00002494
  25        -0.00021159
  26        -0.00014776
  27         0.00008482
  28         0.00011014
  29         0.07075562
  30        -0.00005765
  31         0.00237839
  32         0.00002459
  33        -0.00011498
  34        -0.00004911
  35        -0.00002119
  36         0.00159851
  37         0.00118486
  38         0.00001322
  39        -0.00015672
  40        -0.00016261
  41         0.00013255
  42         0.00015569
  43        -0.00099792
  44        -0.00034232
  45         0.00180123
  46         0.00003072
  47        -0.00002487
  48         0.00001848
  49        -0.00046883
  50         0.00028638
  51        -0.00035977
  52         0.00000175
  53         0.00004653
  54         0.00003410
  55        -0.00002201
  56        -0.00003082
  57         0.00358101
  58        -0.00005433
  59        -0.00071852
  60        -0.00000239
  61         0.00002099
  62         0.00001466
  63         0.00005898
  64         0.00046687
  65         0.00040965
  66         0.00002482
  67         0.00009247
  68        -0.00001192
  69         0.00002714
  70        -0.00002807
  71         0.99818444
  72         0.00890266
  73        -0.01222236
  74        -0.00017214
  75        -0.00001534
  76        -0.00009898
  77        -0.00125893
  78         0.00128141
  79        -0.00073312
  80        -0.00001613
  81         0.00041732
  82         0.00012530
  83        -0.00013252
  84        -0.00035723
  85        -0.00000702
  86        -0.00002900
  87        -0.00002320
  88         0.00000133
  89        -0.00001267
  90        -0.00001508
  91         0.00004612
  92         0.00002973
  93         0.00009194
  94        -0.00000274
  95        -0.00000287
  96        -0.00000378
  97        -0.00000098
  98        -0.00000133
  99         0.00004891
 100        -0.00000094
 101         0.00000805
 102         0.00001287
 103         0.00000726
 104         0.00020294
 105         0.00041420
 106         0.00004445
 107         0.00001289
 108         0.00006763
 109        -0.00083021
 110         0.00116180
 111        -0.00035691
 112         0.00032932
 113        -0.00023373
 114         0.00024503
 115         0.00040604
 116         0.00002081
 117        -0.00009233
 118        -0.00004321
 119        -0.00009311
 120         0.00000754
 121        -0.00000252
 122         0.00000465
 123        -0.00000035
 124        -0.00004166
 125         0.00019776
 126         0.00000995
 127        -0.00000719
 128         0.00000560
Sym=     4a  
Ene=   -11.2370
Spin= Alpha
Occup=    2.00000
   1        -0.00119018
   2        -0.00019945
   3        -0.00023708
   4         0.00000159
   5        -0.00001634
   6        -0.00000539
   7         0.00056821
   8        -0.00033823
   9         0.00044361
  10         0.00002577
  11         0.00002078
  12         0.00005939
  13        -0.00002652
  14         0.00001895
  15         0.05774253
  16        -0.00024196
  17         0.00271366
  18        -0.00007771
  19         0.00006033
  20        -0.00004527
  21         0.00103589
  22        -0.00151458
  23         0.00016988
  24         0.00002374
  25        -0.00019631
  26        -0.00006645
  27         0.00007236
  28         0.00018294
  29        -0.00417810
  30        -0.00037575
  31         0.00166996
  32        -0.00002211
  33        -0.00001570
  34        -0.00004072
  35         0.00035549
  36         0.00005117
  37         0.00047347
  38         0.00000133
  39         0.00005622
  40         0.00002898
  41        -0.00002095
  42        -0.00004236
  43         0.13366293
  44         0.00048871
  45         0.00161848
  46         0.00003186
  47        -0.00014210
  48        -0.00007349
  49        -0.00067446
  50         0.00165335
  51         0.00040287
  52         0.00002455
  53        -0.00012731
  54        -0.00016360
  55         0.00013331
  56         0.00014544
  57         0.99077315
  58         0.00878095
  59        -0.01179177
  60         0.00003406
  61        -0.00010294
  62        -0.00011783
  63         0.00090613
  64         0.00058678
  65         0.00165717
  66         0.00005650
  67         0.00041418
  68         0.00025004
  69        -0.00012413
  70        -0.00021987
  71        -0.00556595
  72        -0.00018234
  73        -0.00042723
  74        -0.00001493
  75         0.00002648
  76        -0.00000079
  77        -0.00019375
  78         0.00049294
  79         0.00012547
  80         0.00002236
  81         0.00008328
  82        -0.00000894
  83         0.00002407
  84        -0.00002892
  85        -0.00001218
  86        -0.00004674
  87         0.00002630
  88         0.00000634
  89        -0.00001474
  90        -0.00000622
  91        -0.00002311
  92         0.00005584
  93         0.00001510
  94         0.00000374
  95         0.00000253
  96         0.00000651
  97        -0.00000374
  98         0.00000257
  99         0.00002744
 100         0.00002160
 101        -0.00000410
 102         0.00001363
 103         0.00000317
 104        -0.00004918
 105         0.00018028
 106        -0.00000810
 107        -0.00000387
 108        -0.00001287
 109        -0.00007494
 110         0.00002153
 111         0.00000547
 112        -0.00000081
 113         0.00000326
 114         0.00021271
 115         0.00041935
 116         0.00001469
 117        -0.00008204
 118        -0.00003802
 119        -0.00069890
 120         0.00110133
 121         0.00022856
 122         0.00013231
 123         0.00036758
 124         0.00014859
 125         0.00049690
 126        -0.00003782
 127         0.00002082
 128        -0.00002655
Sym=     5a  
Ene=   -11.2330
Spin= Alpha
Occup=    2.00000
   1        -0.00908490
   2        -0.00067059
   3         0.00299468
   4         0.00011098
   5        -0.00014386
   6         0.00002739
   7        -0.00171344
   8         0.00126530
   9        -0.00120216
  10         0.00001724
  11        -0.00027684
  12        -0.00007098
  13         0.00004181
  14         0.00024037
  15        -0.00713295
  16        -0.00011686
  17        -0.00042484
  18        -0.00000328
  19         0.00001605
  20         0.00000133
  21        -0.00012613
  22         0.00031794
  23         0.00009797
  24         0.00002473
  25         0.00006965
  26         0.00010254
  27        -0.00005442
  28        -0.00001642
  29         0.99904069
  30         0.00941133
  31        -0.01315294
  32         0.00007180
  33        -0.00013508
  34         0.00001011
  35        -0.00132484
  36        -0.00007860
  37        -0.00162745
  38         0.00009126
  39         0.00045162
  40         0.00027076
  41        -0.00012545
  42        -0.00024019
  43        -0.00711710
  44        -0.00030238
  45         0.00081426
  46         0.00000119
  47        -0.00003456
  48        -0.00003497
  49        -0.00023209
  50        -0.00058951
  51        -0.00070877
  52         0.00003668
  53         0.00011496
  54         0.00003713
  55         0.00000688
  56        -0.00003911
  57         0.00502716
  58        -0.00018269
  59         0.00086524
  60         0.00000667
  61         0.00004456
  62         0.00003793
  63         0.00005172
  64        -0.00028520
  65        -0.00015812
  66        -0.00000150
  67         0.00002063
  68         0.00001500
  69        -0.00001094
  70        -0.00002026
  71        -0.07121417
  72        -0.00136818
  73         0.00389982
  74        -0.00001317
  75         0.00009032
  76         0.00003646
  77         0.00096828
  78        -0.00157199
  79         0.00004474
  80         0.00003152
  81        -0.00022806
  82        -0.00015083
  83         0.00014702
  84         0.00021421
  85        -0.00002165
  86        -0.00010124
  87         0.00017669
  88        -0.00000266
  89         0.00001226
  90         0.00000652
  91         0.00016361
  92        -0.00003248
  93         0.00018975
  94        -0.00000296
  95        -0.00000011
  96         0.00002017
  97        -0.00001970
  98        -0.00002149
  99         0.00007698
 100        -0.00005177
 101         0.00002259
 102         0.00001754
 103         0.00002616
 104        -0.00078210
 105         0.00119191
 106        -0.00024615
 107        -0.00015930
 108        -0.00045948
 109         0.00034921
 110         0.00021737
 111         0.00010955
 112        -0.00010451
 113         0.00007410
 114        -0.00010911
 115         0.00001944
 116        -0.00001219
 117         0.00002004
 118        -0.00000273
 119        -0.00005197
 120         0.00009261
 121         0.00000107
 122         0.00000129
 123         0.00000288
 124        -0.00008522
 125         0.00015082
 126         0.00000746
 127         0.00000734
 128         0.00001173
Sym=     6a  
Ene=   -11.2320
Spin= Alpha
Occup=    2.00000
   1         0.00885096
   2         0.00064673
   3        -0.00303562
   4         0.00005069
   5         0.00008870
   6         0.00013005
   7        -0.00128552
   8        -0.00059692
   9        -0.00203914
  10         0.00007104
  11         0.00030008
  12         0.00015326
  13        -0.00005239
  14        -0.00014792
  15         0.01532412
  16         0.00014133
  17         0.00062448
  18        -0.00000122
  19        -0.00001089
  20        -0.00000994
  21         0.00008844
  22        -0.00044241
  23        -0.00021895
  24         0.00004440
  25        -0.00005791
  26        -0.00003173
  27         0.00006438
  28         0.00011608
  29        -0.00753133
  30         0.00013946
  31        -0.00047364
  32        -0.00002943
  33         0.00004363
  34         0.00000216
  35        -0.00048313
  36         0.00088516
  37         0.00004056
  38        -0.00000703
  39        -0.00011259
  40        -0.00000633
  41        -0.00000341
  42         0.00008131
  43        -0.99257910
  44        -0.00939218
  45         0.01345843
  46        -0.00000658
  47         0.00006173
  48         0.00013777
  49        -0.00156295
  50         0.00107161
  51        -0.00126994
  52         0.00004706
  53        -0.00040956
  54        -0.00016858
  55         0.00014237
  56         0.00038827
  57         0.13363743
  58         0.00197052
  59        -0.00488019
  60         0.00002015
  61        -0.00009894
  62        -0.00006564
  63         0.00040778
  64         0.00134515
  65         0.00154510
  66         0.00001913
  67         0.00026083
  68         0.00022100
  69        -0.00013653
  70        -0.00017300
  71        -0.00139514
  72         0.00022222
  73        -0.00109907
  74         0.00002367
  75        -0.00005383
  76        -0.00001049
  77        -0.00013031
  78         0.00039663
  79         0.00013110
  80        -0.00000327
  81        -0.00001291
  82        -0.00001900
  83         0.00001070
  84         0.00001002
  85         0.00002826
  86         0.00011884
  87        -0.00027575
  88        -0.00000371
  89        -0.00000093
  90        -0.00001572
  91         0.00018641
  92        -0.00004485
  93         0.00019068
  94        -0.00000949
  95        -0.00003319
  96        -0.00004084
  97         0.00001318
  98         0.00001253
  99         0.00011284
 100        -0.00010718
 101         0.00005300
 102        -0.00002106
 103         0.00002495
 104         0.00010969
 105        -0.00012710
 106         0.00001476
 107        -0.00001283
 108         0.00001323
 109         0.00004279
 110        -0.00010033
 111        -0.00000005
 112        -0.00000072
 113        -0.00000088
 114         0.00012954
 115         0.00002199
 116        -0.00000712
 117        -0.00001716
 118        -0.00001964
 119        -0.00039681
 120        -0.00017511
 121         0.00010076
 122         0.00005560
 123         0.00015577
 124         0.00081086
 125        -0.00112840
 126        -0.00038374
 127         0.00032360
 128        -0.00021559
Sym=     7a  
Ene=   -11.2270
Spin= Alpha
Occup=    2.00000
   1        -0.00004594
   2        -0.00028775
   3         0.00143976
   4         0.00000774
   5        -0.00003631
   6        -0.00001632
   7        -0.00012266
   8         0.00038454
   9         0.00014819
  10         0.00000958
  11         0.00003212
  12         0.00000258
  13         0.00000342
  14        -0.00001154
  15         0.99897760
  16         0.00921034
  17        -0.01279390
  18        -0.00002509
  19        -0.00013320
  20        -0.00005392
  21        -0.00043001
  22         0.00214326
  23         0.00098398
  24        -0.00002708
  25         0.00035149
  26         0.00032527
  27        -0.00026195
  28        -0.00031347
  29         0.00459288
  30        -0.00002722
  31        -0.00069696
  32        -0.00001526
  33         0.00000153
  34        -0.00001807
  35        -0.00041332
  36         0.00022028
  37        -0.00035215
  38         0.00003244
  39         0.00007252
  40         0.00009913
  41        -0.00004914
  42        -0.00001295
  43         0.00742185
  44         0.00001399
  45        -0.00078793
  46         0.00001665
  47        -0.00000229
  48         0.00002033
  49         0.00037059
  50        -0.00007330
  51         0.00040425
  52        -0.00004519
  53         0.00005287
  54         0.00002522
  55        -0.00005495
  56        -0.00011145
  57        -0.06010611
  58        -0.00127150
  59         0.00408600
  60         0.00006996
  61        -0.00005882
  62         0.00005279
  63        -0.00138663
  64         0.00047783
  65        -0.00138279
  66        -0.00001116
  67        -0.00031344
  68        -0.00009687
  69         0.00005876
  70         0.00021367
  71        -0.04075718