[Molden Format]
[N_Atoms]
                   13
[Atoms] (AU)
C1     1   6    53.223683    51.282700    54.765121
C2     2   6    52.620117    54.918393    50.982719
C3     3   6    55.032321    51.526958    52.871481
C4     4   6    51.099098    52.845288    54.761351
C5     5   6    50.800120    54.635114    52.861762
C6     6   6    54.739120    53.358224    51.008034
O7     7   8    53.398927    49.504774    56.637373
H8     8   1    55.128266    48.864156    56.769094
H9     9   1    56.659415    50.288144    52.848158
H10   10   1    56.182578    53.554961    49.571334
H11   11   1    52.404403    56.341999    49.530377
H12   12   1    49.129334    55.814977    52.861632
H13   13   1    49.690978    52.638378    56.233690
[5D]
[7F]
[9G]
[Charge] (Mulliken)
  0.13819375283648494     
  -4.7223288893677662E-002
   3.0519158572937855E-002
  -6.3054823800838378E-002
  -4.3429732431438772E-002
  -9.9801148552868035E-002
 -0.41112455223197131     
  0.27156134177906388     
   1.0323120436143696E-002
   4.3963565951915973E-002
   6.8415520520057171E-002
   8.2122512748357246E-002
   1.9534573062726879E-002
[GTO] (AU)
   1
   s   9
  0.666500000E+04  0.692000179E-03
  0.100000000E+04  0.532900138E-02
  0.228000000E+03  0.270770070E-01
  0.647100000E+02  0.101718026E+00
  0.210600000E+02  0.274740071E+00
  0.749500000E+01  0.448564116E+00
  0.279700000E+01  0.285074074E+00
  0.521500000E+00  0.152040039E-01
  0.159600000E+00 -0.319100083E-02
   s   9
  0.666500000E+04 -0.146000064E-03
  0.100000000E+04 -0.115400051E-02
  0.228000000E+03 -0.572500252E-02
  0.647100000E+02 -0.233120103E-01
  0.210600000E+02 -0.639550281E-01
  0.749500000E+01 -0.149981066E+00
  0.279700000E+01 -0.127262056E+00
  0.521500000E+00  0.544529240E+00
  0.159600000E+00  0.580496255E+00
   s   1
  0.159600000E+00  0.100000000E+01
   p   4
  0.943900000E+01  0.381090213E-01
  0.200200000E+01  0.209480117E+00
  0.545600000E+00  0.508557284E+00
  0.151700000E+00  0.468842262E+00
   p   1
  0.151700000E+00  0.100000000E+01
   d   1
  0.550000000E+00  0.100000000E+01
 
   2
   s   9
  0.666500000E+04  0.692000179E-03
  0.100000000E+04  0.532900138E-02
  0.228000000E+03  0.270770070E-01
  0.647100000E+02  0.101718026E+00
  0.210600000E+02  0.274740071E+00
  0.749500000E+01  0.448564116E+00
  0.279700000E+01  0.285074074E+00
  0.521500000E+00  0.152040039E-01
  0.159600000E+00 -0.319100083E-02
   s   9
  0.666500000E+04 -0.146000064E-03
  0.100000000E+04 -0.115400051E-02
  0.228000000E+03 -0.572500252E-02
  0.647100000E+02 -0.233120103E-01
  0.210600000E+02 -0.639550281E-01
  0.749500000E+01 -0.149981066E+00
  0.279700000E+01 -0.127262056E+00
  0.521500000E+00  0.544529240E+00
  0.159600000E+00  0.580496255E+00
   s   1
  0.159600000E+00  0.100000000E+01
   p   4
  0.943900000E+01  0.381090213E-01
  0.200200000E+01  0.209480117E+00
  0.545600000E+00  0.508557284E+00
  0.151700000E+00  0.468842262E+00
   p   1
  0.151700000E+00  0.100000000E+01
   d   1
  0.550000000E+00  0.100000000E+01
 
   3
   s   9
  0.666500000E+04  0.692000179E-03
  0.100000000E+04  0.532900138E-02
  0.228000000E+03  0.270770070E-01
  0.647100000E+02  0.101718026E+00
  0.210600000E+02  0.274740071E+00
  0.749500000E+01  0.448564116E+00
  0.279700000E+01  0.285074074E+00
  0.521500000E+00  0.152040039E-01
  0.159600000E+00 -0.319100083E-02
   s   9
  0.666500000E+04 -0.146000064E-03
  0.100000000E+04 -0.115400051E-02
  0.228000000E+03 -0.572500252E-02
  0.647100000E+02 -0.233120103E-01
  0.210600000E+02 -0.639550281E-01
  0.749500000E+01 -0.149981066E+00
  0.279700000E+01 -0.127262056E+00
  0.521500000E+00  0.544529240E+00
  0.159600000E+00  0.580496255E+00
   s   1
  0.159600000E+00  0.100000000E+01
   p   4
  0.943900000E+01  0.381090213E-01
  0.200200000E+01  0.209480117E+00
  0.545600000E+00  0.508557284E+00
  0.151700000E+00  0.468842262E+00
   p   1
  0.151700000E+00  0.100000000E+01
   d   1
  0.550000000E+00  0.100000000E+01
 
   4
   s   9
  0.666500000E+04  0.692000179E-03
  0.100000000E+04  0.532900138E-02
  0.228000000E+03  0.270770070E-01
  0.647100000E+02  0.101718026E+00
  0.210600000E+02  0.274740071E+00
  0.749500000E+01  0.448564116E+00
  0.279700000E+01  0.285074074E+00
  0.521500000E+00  0.152040039E-01
  0.159600000E+00 -0.319100083E-02
   s   9
  0.666500000E+04 -0.146000064E-03
  0.100000000E+04 -0.115400051E-02
  0.228000000E+03 -0.572500252E-02
  0.647100000E+02 -0.233120103E-01
  0.210600000E+02 -0.639550281E-01
  0.749500000E+01 -0.149981066E+00
  0.279700000E+01 -0.127262056E+00
  0.521500000E+00  0.544529240E+00
  0.159600000E+00  0.580496255E+00
   s   1
  0.159600000E+00  0.100000000E+01
   p   4
  0.943900000E+01  0.381090213E-01
  0.200200000E+01  0.209480117E+00
  0.545600000E+00  0.508557284E+00
  0.151700000E+00  0.468842262E+00
   p   1
  0.151700000E+00  0.100000000E+01
   d   1
  0.550000000E+00  0.100000000E+01
 
   5
   s   9
  0.666500000E+04  0.692000179E-03
  0.100000000E+04  0.532900138E-02
  0.228000000E+03  0.270770070E-01
  0.647100000E+02  0.101718026E+00
  0.210600000E+02  0.274740071E+00
  0.749500000E+01  0.448564116E+00
  0.279700000E+01  0.285074074E+00
  0.521500000E+00  0.152040039E-01
  0.159600000E+00 -0.319100083E-02
   s   9
  0.666500000E+04 -0.146000064E-03
  0.100000000E+04 -0.115400051E-02
  0.228000000E+03 -0.572500252E-02
  0.647100000E+02 -0.233120103E-01
  0.210600000E+02 -0.639550281E-01
  0.749500000E+01 -0.149981066E+00
  0.279700000E+01 -0.127262056E+00
  0.521500000E+00  0.544529240E+00
  0.159600000E+00  0.580496255E+00
   s   1
  0.159600000E+00  0.100000000E+01
   p   4
  0.943900000E+01  0.381090213E-01
  0.200200000E+01  0.209480117E+00
  0.545600000E+00  0.508557284E+00
  0.151700000E+00  0.468842262E+00
   p   1
  0.151700000E+00  0.100000000E+01
   d   1
  0.550000000E+00  0.100000000E+01
 
   6
   s   9
  0.666500000E+04  0.692000179E-03
  0.100000000E+04  0.532900138E-02
  0.228000000E+03  0.270770070E-01
  0.647100000E+02  0.101718026E+00
  0.210600000E+02  0.274740071E+00
  0.749500000E+01  0.448564116E+00
  0.279700000E+01  0.285074074E+00
  0.521500000E+00  0.152040039E-01
  0.159600000E+00 -0.319100083E-02
   s   9
  0.666500000E+04 -0.146000064E-03
  0.100000000E+04 -0.115400051E-02
  0.228000000E+03 -0.572500252E-02
  0.647100000E+02 -0.233120103E-01
  0.210600000E+02 -0.639550281E-01
  0.749500000E+01 -0.149981066E+00
  0.279700000E+01 -0.127262056E+00
  0.521500000E+00  0.544529240E+00
  0.159600000E+00  0.580496255E+00
   s   1
  0.159600000E+00  0.100000000E+01
   p   4
  0.943900000E+01  0.381090213E-01
  0.200200000E+01  0.209480117E+00
  0.545600000E+00  0.508557284E+00
  0.151700000E+00  0.468842262E+00
   p   1
  0.151700000E+00  0.100000000E+01
   d   1
  0.550000000E+00  0.100000000E+01
 
   7
   s   9
  0.117200000E+05  0.710000250E-03
  0.175900000E+04  0.547000193E-02
  0.400800000E+03  0.278370098E-01
  0.113700000E+03  0.104800037E+00
  0.370300000E+02  0.283062100E+00
  0.132700000E+02  0.448719158E+00
  0.502500000E+01  0.270952096E+00
  0.101300000E+01  0.154580054E-01
  0.302300000E+00 -0.258500091E-02
   s   9
  0.117200000E+05 -0.160000015E-03
  0.175900000E+04 -0.126300012E-02
  0.400800000E+03 -0.626700060E-02
  0.113700000E+03 -0.257160025E-01
  0.370300000E+02 -0.709240068E-01
  0.132700000E+02 -0.165411016E+00
  0.502500000E+01 -0.116955011E+00
  0.101300000E+01  0.557368054E+00
  0.302300000E+00  0.572759055E+00
   s   1
  0.302300000E+00  0.100000000E+01
   p   4
  0.177000000E+02  0.430179924E-01
  0.385400000E+01  0.228912960E+00
  0.104600000E+01  0.508727910E+00
  0.275300000E+00  0.460530919E+00
   p   1
  0.275300000E+00  0.100000000E+01
   d   1
  0.118500000E+01  0.100000000E+01
 
   8
   s   4
  0.130100000E+02  0.196849900E-01
  0.196200000E+01  0.137976930E+00
  0.444600000E+00  0.478147757E+00
  0.122000000E+00  0.501239745E+00
   s   1
  0.122000000E+00  0.100000000E+01
   p   1
  0.727000000E+00  0.100000000E+01
 
   9
   s   4
  0.130100000E+02  0.196849900E-01
  0.196200000E+01  0.137976930E+00
  0.444600000E+00  0.478147757E+00
  0.122000000E+00  0.501239745E+00
   s   1
  0.122000000E+00  0.100000000E+01
   p   1
  0.727000000E+00  0.100000000E+01
 
  10
   s   4
  0.130100000E+02  0.196849900E-01
  0.196200000E+01  0.137976930E+00
  0.444600000E+00  0.478147757E+00
  0.122000000E+00  0.501239745E+00
   s   1
  0.122000000E+00  0.100000000E+01
   p   1
  0.727000000E+00  0.100000000E+01
 
  11
   s   4
  0.130100000E+02  0.196849900E-01
  0.196200000E+01  0.137976930E+00
  0.444600000E+00  0.478147757E+00
  0.122000000E+00  0.501239745E+00
   s   1
  0.122000000E+00  0.100000000E+01
   p   1
  0.727000000E+00  0.100000000E+01
 
  12
   s   4
  0.130100000E+02  0.196849900E-01
  0.196200000E+01  0.137976930E+00
  0.444600000E+00  0.478147757E+00
  0.122000000E+00  0.501239745E+00
   s   1
  0.122000000E+00  0.100000000E+01
   p   1
  0.727000000E+00  0.100000000E+01
 
  13
   s   4
  0.130100000E+02  0.196849900E-01
  0.196200000E+01  0.137976930E+00
  0.444600000E+00  0.478147757E+00
  0.122000000E+00  0.501239745E+00
   s   1
  0.122000000E+00  0.100000000E+01
   p   1
  0.727000000E+00  0.100000000E+01
[MO]
Sym=     1a  
Ene=   -20.5780
Spin= Alpha
Occup=    2.00000
    1    2.84360000e-04
    2    1.04477000e-03
    3   -3.64540000e-04
    4    1.96102851e-05
    5   -2.03356716e-04
    6    2.67379002e-04
    7    1.28270116e-03
    8   -3.41868150e-03
    9    3.34888397e-03
   10   -1.11443442e-04
   11   -1.29916583e-04
   12    1.47000098e-04
   13    1.69743986e-04
   14   -8.99861324e-05
   15   -4.66400000e-05
   16   -1.67090000e-04
   17    5.67210000e-04
   18   -1.70293487e-05
   19    4.31853283e-05
   20   -3.63668709e-05
   21   -3.58787341e-05
   22   -3.65076639e-04
   23    4.56747568e-04
   24    2.10507634e-05
   25    1.43804825e-05
   26   -5.58776002e-05
   27   -3.08107296e-05
   28   -5.28334380e-06
   29   -7.68300000e-05
   30   -2.86250000e-04
   31    2.31295000e-03
   32    9.89375552e-05
   33   -3.72181618e-05
   34   -4.74468250e-05
   35   -1.23391371e-03
   36    1.69266628e-03
   37   -1.06981846e-03
   38   -2.23997518e-04
   39    3.11801320e-05
   40    9.93622479e-05
   41    1.25687625e-04
   42   -2.58101391e-04
   43   -1.29960000e-04
   44   -4.65220000e-04
   45    3.45836000e-03
   46   -9.07325572e-05
   47    2.35641295e-05
   48    5.63679241e-05
   49    1.11632416e-03
   50    6.26276796e-04
   51   -1.82169430e-03
   52    9.66672239e-05
   53   -2.80388631e-04
   54    1.14910192e-05
   55    1.32016641e-04
   56    7.17839205e-05
   57    3.51000000e-06
   58   -3.75000000e-06
   59   -2.04114000e-03
   60   -4.26883236e-05
   61    6.00799134e-05
   62   -3.69542369e-05
   63   -2.58202103e-04
   64    4.77836964e-04
   65   -3.36016120e-04
   66    6.31295068e-05
   67   -3.77377331e-05
   68   -2.96202403e-05
   69   -7.08752571e-06
   70    6.33360222e-05
   71    5.29000000e-06
   72    1.06300000e-05
   73   -1.93995000e-03
   74    4.65953093e-05
   75   -1.09015753e-06
   76   -3.79459037e-05
   77   -1.09545720e-04
   78    5.34731980e-04
   79   -5.20956891e-04
   80   -3.04207397e-05
   81    7.60406576e-05
   82   -3.09476769e-05
   83   -3.55147731e-05
   84   -6.77405954e-05
   85    1.00091811e+00
   86    4.23101000e-03
   87   -6.78866000e-03
   88    1.02632020e-03
   89    1.26122006e-04
   90   -1.83091195e-03
   91   -6.99692490e-04
   92   -1.05053075e-03
   93    2.62409980e-03
   94   -9.56602989e-05
   95   -3.66151014e-06
   96    1.18841377e-04
   97    4.53625337e-05
   98   -3.54427238e-05
   99    4.39330000e-04
  100   -5.01070000e-04
  101    3.72886193e-04
  102   -2.38565598e-04
  103   -1.33490016e-04
  104   -8.45600000e-05
  105    5.60420000e-04
  106    1.22729602e-04
  107   -1.12051736e-04
  108    3.15908863e-05
  109    2.03670000e-04
  110   -9.99400000e-05
  111   -2.49670189e-05
  112   -1.23119912e-05
  113    3.40432172e-05
  114    1.97100000e-05
  115    1.24940000e-04
  116    2.47791787e-06
  117    1.97414875e-05
  118   -2.48201147e-05
  119    1.77420000e-04
  120   -1.11620000e-04
  121    3.53800491e-05
  122   -3.16723461e-05
  123    6.19147141e-06
  124   -1.09580000e-04
  125    5.25510000e-04
  126   -1.06038220e-04
  127   -1.81603937e-05
  128    1.18207081e-04
Sym=     2a  
Ene=   -11.3010
Spin= Alpha
Occup=    2.00000
    1    1.00141559e+00
    2    8.46414000e-03
    3   -1.35992300e-02
    4    1.70121026e-04
    5   -8.85457797e-04
    6    1.08317018e-03
    7    1.88845052e-04
    8   -3.39046765e-03
    9    4.18761160e-03
   10    1.71206672e-04
   11   -1.93727759e-04
   12   -4.95511347e-04
   13    2.84651246e-05
   14   -2.53829899e-04
   15   -2.54430000e-04
   16   -4.13040000e-04
   17    3.42441000e-03
   18   -9.30003828e-07
   19    1.13756957e-05
   20   -1.97151272e-05
   21    3.48258230e-04
   22   -1.21166969e-03
   23    1.15307891e-03
   24   -5.01169347e-07
   25   -5.49741063e-05
   26   -5.87585825e-05
   27    2.84348921e-05
   28   -6.14190700e-05
   29    8.41306000e-03
   30   -1.00840000e-03
   31    7.01917000e-03
   32    1.04693947e-05
   33   -4.44803846e-05
   34    5.66960331e-05
   35   -3.63612295e-03
   36    1.80187850e-03
   37    9.10788455e-04
   38   -2.74077447e-05
   39    7.65178117e-06
   40    1.62469844e-04
   41    1.25359097e-05
   42    9.57285282e-05
   43    8.15749000e-03
   44   -8.69810000e-04
   45    6.40656000e-03
   46    5.13360094e-05
   47   -7.61151762e-05
   48    5.46064969e-05
   49    2.74820436e-03
   50    9.89491079e-05
   51   -2.55815363e-03
   52   -5.74110667e-05
   53   -5.89871432e-07
   54    1.91441832e-04
   55    4.70054717e-05
   56    8.06382781e-05
   57    7.44600000e-05
   58    2.07920000e-04
   59   -3.60151000e-03
   60   -2.75504369e-05
   61   -9.91947992e-06
   62    2.04514241e-05
   63   -1.29914761e-03
   64    1.00683068e-03
   65   -7.26809034e-05
   66   -1.31098251e-05
   67    6.01366292e-05
   68   -5.08082727e-05
   69   -3.71684104e-05
   70   -4.27470175e-05
   71    8.21900000e-05
   72    1.73010000e-04
   73   -3.47234000e-03
   74    1.07418633e-05
   75   -5.84745046e-06
   76   -1.69488022e-05
   77    1.43392322e-03
   78   -6.27054323e-05
   79   -1.08800356e-03
   80    6.13938236e-05
   81   -3.14478086e-05
   82   -5.27237724e-05
   83   -2.50140078e-05
   84    4.15265794e-05
   85    3.75730000e-04
   86    1.86884000e-03
   87   -4.19453000e-03
   88   -1.20453259e-04
   89    2.58987283e-04
   90   -2.30421678e-04
   91    2.36221541e-04
   92   -1.08955953e-03
   93    1.38225546e-03
   94   -9.66238536e-05
   95    1.50056158e-05
   96    2.77351248e-04
   97    6.73037518e-05
   98    1.50729657e-04
   99    5.04330000e-04
  100   -6.92510000e-04
  101   -1.17363282e-04
  102    2.08527412e-04
  103   -1.72804491e-04
  104    3.56920000e-04
  105    1.11529000e-03
  106   -6.34842190e-05
  107    2.16202340e-05
  108    2.34287796e-05
  109   -7.35800000e-05
  110   -2.83160000e-04
  111   -1.51899456e-05
  112   -1.84783532e-05
  113    3.52485874e-05
  114    2.12600000e-05
  115    4.04550000e-04
  116   -1.06146165e-05
  117    3.22349715e-05
  118   -2.87978025e-05
  119   -2.87600000e-05
  120   -2.49000000e-04
  121    2.27842025e-05
  122   -3.67940174e-05
  123    2.51559654e-05
  124    3.32290000e-04
  125    8.81630000e-04
  126    4.48691656e-05
  127   -3.45424622e-05
  128    3.76585774e-06
Sym=     3a  
Ene=   -11.2420
Spin= Alpha
Occup=    2.00000
    1   -6.97770000e-04
    2   -1.35150000e-04
    3   -4.56830000e-04
    4    8.44114281e-06
    5   -1.10906646e-05
    6   -2.00820011e-06
    7    7.51863669e-04
    8   -4.50453766e-04
    9   -5.50693010e-05
   10    3.97548773e-05
   11   -5.04691372e-05
   12   -5.63665228e-05
   13   -9.27413516e-07
   14    8.26629521e-06
   15    3.99383400e-02
   16   -4.11280000e-04
   17    3.05071000e-03
   18   -7.06190500e-05
   19    5.65457892e-05
   20   -5.65515009e-08
   21    1.13094243e-03
   22   -1.39205260e-03
   23    7.01986942e-04
   24    2.06692637e-05
   25    1.07092175e-04
   26    1.86437554e-04
   27   -4.51547720e-05
   28    1.94568070e-04
   29    7.07556200e-02
   30   -5.76500000e-05
   31    2.37839000e-03
   32    1.17822113e-05
   33   -8.77162627e-05
   34    9.16727733e-05
   35   -7.08612247e-04
   36    1.43980692e-03
   37   -1.17660578e-03
   38   -3.50092183e-05
   39    9.50883477e-05
   40    2.43132465e-04
   41   -1.62457871e-05
   42    1.52781076e-04
   43   -9.97920000e-04
   44   -3.42320000e-04
   45    1.80123000e-03
   46   -3.05623371e-05
   47   -2.53419836e-06
   48    3.10365445e-05
   49    5.16173562e-04
   50   -4.67349721e-05
   51   -4.03274376e-04
   52    4.44221908e-07
   53   -2.67832750e-05
   54   -4.69063270e-05
   55    9.26337657e-06
   56   -4.19722657e-05
   57    3.58101000e-03
   58   -5.43300000e-05
   59   -7.18520000e-04
   60   -7.98394359e-06
   61    1.76840051e-05
   62   -1.68742528e-05
   63   -2.81487584e-04
   64    4.61640717e-04
   65   -3.11306840e-04
   66   -2.47366441e-05
   67   -6.57795320e-05
   68    4.61758658e-06
   69    5.71319224e-05
   70   -5.10793222e-05
   71    9.98184440e-01
   72    8.90266000e-03
   73   -1.22223600e-02
   74    1.28048811e-04
   75   -1.14910243e-04
   76   -1.00317864e-04
   77    1.29562453e-03
   78    3.25735224e-04
   79   -1.40699499e-03
   80    4.47594741e-05
   81   -3.54060656e-04
   82   -3.40839644e-04
   83    1.69952956e-04
   84   -2.50744977e-04
   85   -7.02000000e-06
   86   -2.90000000e-05
   87   -2.32000000e-05
   88    1.07100801e-05
   89   -1.13273154e-05
   90    1.21115775e-05
   91   -8.94482257e-05
   92    5.84594234e-05
   93   -6.73807445e-06
   94    1.76562912e-06
   95   -1.23775422e-06
   96    2.40068888e-07
   97   -8.67359931e-07
   98    5.22520545e-06
   99    4.89100000e-05
  100   -9.40000000e-07
  101   -5.40897109e-06
  102    1.58004125e-05
  103   -2.05839662e-06
  104    2.02940000e-04
  105    4.14200000e-04
  106   -7.04231531e-05
  107    4.11480553e-05
  108    7.94912240e-06
  109   -8.30210000e-04
  110    1.16180000e-03
  111    3.83142229e-04
  112    6.14453746e-05
  113   -3.74022221e-04
  114    2.45030000e-04
  115    4.06040000e-04
  116    1.27746700e-05
  117   -7.02229916e-05
  118    7.57002534e-05
  119   -9.31100000e-05
  120    7.54000000e-06
  121    2.06583384e-06
  122    2.50422129e-06
  123   -4.19006042e-06
  124   -4.16600000e-05
  125    1.97760000e-04
  126   -9.31841860e-06
  127   -1.32916530e-07
  128    9.75745910e-06
Sym=     4a  
Ene=   -11.2370
Spin= Alpha
Occup=    2.00000
    1   -1.19018000e-03
    2   -1.99450000e-04
    3   -2.37080000e-04
    4    6.07013573e-07
    5   -1.33395965e-05
    6    1.09664261e-05
    7   -6.30495789e-04
    8    6.47772636e-05
    9    4.82007194e-04
   10   -2.48121168e-05
   11    2.90762477e-05
   12   -3.66660179e-05
   13   -1.07765452e-05
   14   -5.25726752e-05
   15    5.77425300e-02
   16   -2.41960000e-04
   17    2.71366000e-03
   18    7.52711713e-05
   19    4.38906969e-06
   20   -7.77361740e-05
   21   -7.73871961e-04
   22   -6.94581550e-04
   23    1.52136733e-03
   24   -3.51238130e-05
   25    1.76321495e-04
   26    1.76548452e-04
   27   -7.08614595e-05
   28    1.17073333e-04
   29   -4.17810000e-03
   30   -3.75750000e-04
   31    1.66996000e-03
   32    3.93583067e-05
   33   -2.89185817e-05
   34    2.84601956e-06
   35   -5.12817748e-04
   36    2.79199808e-04
   37    1.10592831e-04
   38    3.04894402e-06
   39   -3.93111421e-05
   40   -5.01402362e-05
   41    1.81864701e-05
   42   -4.28499343e-05
   43    1.33662930e-01
   44    4.88710000e-04
   45    1.61848000e-03
   46    2.62764996e-05
   47   -1.08830689e-04
   48    1.18632527e-04
   49    1.88289921e-04
   50    1.05977139e-03
   51   -1.48060739e-03
   52   -4.52806190e-05
   53    7.70960791e-05
   54    2.36334886e-04
   55    2.74971300e-06
   56    1.36542921e-04
   57    9.90773150e-01
   58    8.78095000e-03
   59   -1.17917700e-02
   60    7.73685730e-05
   61   -7.90684154e-05
   62    1.15771005e-04
   63   -1.61629337e-03
   64    1.13661864e-03
   65   -8.53731956e-05
   66   -3.54499720e-05
   67   -2.24172443e-04
   68   -3.19362974e-04
   69    1.17147384e-04
   70   -3.65762484e-04
   71   -5.56595000e-03
   72   -1.82340000e-04
   73   -4.27230000e-04
   74    1.07619939e-05
   75    1.40630042e-05
   76   -2.47210598e-05
   77    4.94452185e-05
   78    3.20425470e-04
   79   -4.37211980e-04
   80   -1.94439784e-05
   81   -5.96827786e-05
   82    1.74962534e-06
   83    5.26632971e-05
   84   -4.70594995e-05
   85   -1.21800000e-05
   86   -4.67400000e-05
   87    2.63000000e-05
   88    7.21930415e-07
   89   -9.52189977e-06
   90    1.43165583e-05
   91    5.02779826e-06
   92    3.57564182e-05
   93   -5.07581274e-05
   94   -3.79075596e-06
   95    3.70090936e-06
   96   -4.58866656e-06
   97   -8.61701880e-07
   98   -5.78758570e-06
   99    2.74400000e-05
  100    2.16000000e-05
  101    1.36603676e-06
  102    9.50819321e-06
  103   -1.09710531e-05
  104   -4.91800000e-05
  105    1.80280000e-04
  106    1.29644500e-05
  107   -8.82395207e-06
  108   -5.33579210e-07
  109   -7.49400000e-05
  110    2.15300000e-05
  111   -4.50324848e-06
  112    2.57586376e-06
  113    3.78024854e-06
  114    2.12710000e-04
  115    4.19350000e-04
  116    1.18537649e-05
  117   -6.44070054e-05
  118    6.40554761e-05
  119   -6.98900000e-04
  120    1.10133000e-03
  121   -3.64174314e-04
  122    2.68759989e-04
  123    2.40893052e-06
  124    1.48590000e-04
  125    4.96900000e-04
  126    3.87380528e-05
  127   -5.44598578e-06
  128   -3.22247079e-05
Sym=     5a  
Ene=   -11.2330
Spin= Alpha
Occup=    2.00000
    1   -9.08490000e-03
    2   -6.70590000e-04
    3    2.99468000e-03
    4   -8.69313775e-05
    5   -5.81285856e-05
    6    1.51084332e-04
    7    1.83536853e-03
    8    2.30169652e-05
    9   -1.61645970e-03
   10   -4.78784135e-05
   11    2.46747263e-04
   12    1.84436571e-04
   13   -1.22531279e-04
   14    1.71155659e-04
   15   -7.13295000e-03
   16   -1.16860000e-04
   17   -4.24840000e-04
   18    3.52218220e-06
   19    1.18011859e-05
   20   -1.08837514e-05
   21    1.61095678e-05
   22    2.07663913e-04
   23   -2.88459568e-04
   24   -2.10715066e-05
   25    1.53047571e-06
   26   -9.33965874e-05
   27   -4.98564570e-06
   28   -1.00070824e-04
   29    9.99040690e-01
   30    9.41133000e-03
   31   -1.31529400e-02
   32   -5.96413638e-05
   33   -7.35077975e-05
   34    1.20596724e-04
   35    1.81032155e-03
   36   -9.33619738e-04
   37   -5.10942798e-04
   38   -4.53901455e-05
   39   -2.30229964e-04
   40   -3.41049644e-04
   41    1.53056671e-04
   42   -4.05242671e-04
   43   -7.11710000e-03
   44   -3.02380000e-04
   45    8.14260000e-04
   46    2.39601981e-05
   47   -3.16238936e-05
   48    2.90611228e-05
   49    5.71172654e-04
   50   -6.85949299e-04
   51    3.27075036e-04
   52   -2.56004423e-05
   53   -5.88911166e-05
   54   -3.54747296e-05
   55    5.57980942e-05
   56   -9.49808263e-05
   57    5.02716000e-03
   58   -1.82690000e-04
   59    8.65240000e-04
   60   -2.60003578e-05
   61    4.45099854e-05
   62   -2.84887697e-05
   63    6.54881593e-05
   64   -2.26016781e-04
   65    2.31610985e-04
   66    5.01337988e-06
   67   -1.51165191e-05
   68   -2.43972352e-05
   69    5.52630145e-06
   70   -1.74238307e-05
   71   -7.12141700e-02
   72   -1.36818000e-03
   73    3.89982000e-03
   74   -8.64505734e-06
   75    7.20105603e-05
   76   -6.63341924e-05
   77   -6.55296526e-04
   78   -7.90943114e-04
   79    1.53483414e-03
   80   -4.02191305e-05
   81    1.75981382e-04
   82    2.82065915e-04
   83   -4.43343719e-05
   84    1.70709184e-04
   85   -2.16500000e-05
   86   -1.01240000e-04
   87    1.76690000e-04
   88   -2.45599970e-06
   89    9.45446889e-06
   90   -1.02212858e-05
   91   -2.23601140e-04
   92    7.89020270e-05
   93    8.72080587e-05
   94    1.39894873e-05
   95    5.45721660e-07
   96   -3.18511029e-05
   97   -1.67299045e-06
   98   -7.22616618e-06
   99    7.69800000e-05
  100   -5.17700000e-05
  101   -2.52975794e-05
  102    2.93338442e-05
  103    1.36504988e-06
  104   -7.82100000e-04
  105    1.19191000e-03
  106    4.47854613e-04
  107   -3.09564501e-04
  108    2.61581432e-05
  109    3.49210000e-04
  110    2.17370000e-04
  111   -1.20684428e-04
  112   -2.15068482e-05
  113    1.15702536e-04
  114   -1.09110000e-04
  115    1.94400000e-05
  116    1.03522052e-05
  117    9.96059136e-06
  118   -1.87421735e-05
  119   -5.19700000e-05
  120    9.26100000e-05
  121   -2.62743014e-06
  122    1.92992954e-06
  123   -6.89480145e-07
  124   -8.52200000e-05
  125    1.50820000e-04
  126   -1.08746960e-05
  127    1.12768860e-05
  128   -1.30112615e-06
Sym=     6a  
Ene=   -11.2320
Spin= Alpha
Occup=    2.00000
    1    8.85096000e-03
    2    6.46730000e-04
    3   -3.03562000e-03
    4   -1.11521773e-04
    5    1.13923102e-04
    6   -4.39839711e-05
    7    2.05867340e-03
    8   -1.38562737e-03
    9   -9.41685191e-05
   10   -3.75738470e-05
   11   -1.55709730e-04
   12   -1.87699624e-04
   13    1.18282346e-04
   14   -2.61398504e-04
   15    1.53241200e-02
   16    1.41330000e-04
   17    6.24480000e-04
   18    6.89293593e-06
   19   -1.07207589e-05
   20    7.51244720e-06
   21    7.49539121e-05
   22   -3.43681303e-04
   23    3.57424701e-04
   24   -5.30786252e-05
   25    8.40592443e-05
   26    1.16256768e-04
   27   -1.15897864e-05
   28    2.04405361e-05
   29   -7.53133000e-03
   30    1.39460000e-04
   31   -4.73640000e-04
   32    1.55603408e-05
   33    2.09000034e-05
   34   -4.57759004e-05
   35    2.93119506e-04
   36    4.85037444e-04
   37   -8.35097341e-04
   38   -4.79472979e-06
   39    9.74835844e-05
   40    4.44975412e-05
   41   -6.33550927e-05
   42    6.22013223e-05
   43   -9.92579100e-01
   44   -9.39218000e-03
   45    1.34584300e-02
   46   -1.12685364e-04
   47    6.12459006e-05
   48   -7.99087643e-05
   49    1.81660435e-03
   50   -6.46183649e-05
   51   -1.37828930e-03
   52   -8.82474597e-05
   53    3.57904235e-04
   54    3.73480450e-04
   55   -1.45304659e-04
   56    2.70022069e-04
   57    1.33637430e-01
   58    1.97052000e-03
   59   -4.88019000e-03
   60    3.23753422e-05
   61   -7.82454184e-05
   62    8.56343822e-05
   63   -1.20795596e-03
   64    1.49278237e-03
   65   -8.21882140e-04
   66    2.74899897e-06
   67   -1.33286736e-04
   68   -2.84097019e-04
   69    4.70612472e-05
   70   -2.55166414e-04
   71   -1.39514000e-03
   72    2.22220000e-04
   73   -1.09907000e-03
   74   -8.98794622e-06
   75   -3.33336391e-05
   76    4.87448790e-05
   77    5.65177743e-06
   78    2.74457977e-04
   79   -3.40769921e-04
   80   -1.08059288e-06
   81    2.56176790e-06
   82    2.06790520e-05
   83   -1.49697927e-06
   84    1.77667365e-05
   85    2.82600000e-05
   86    1.18840000e-04
   87   -2.75750000e-04
   88    1.53988649e-05
   89   -4.26991364e-06
   90    2.52788419e-06
   91   -2.32717384e-04
   92    8.09041721e-05
   93    1.11428036e-04
   94    3.54170059e-06
   95    5.74289008e-06
   96    3.30517663e-05
   97   -3.34982341e-06
   98    4.51784252e-05
   99    1.12840000e-04
  100   -1.07180000e-04
  101   -4.07077852e-05
  102    1.32637577e-05
  103    4.51882181e-05
  104    1.09690000e-04
  105   -1.27100000e-04
  106   -1.90014749e-05
  107   -1.54158256e-06
  108    1.39307887e-05
  109    4.27900000e-05
  110   -1.00330000e-04
  111    6.58573963e-07
  112   -7.13484707e-07
  113    5.93733870e-07
  114    1.29540000e-04
  115    2.19900000e-05
  116    1.57747714e-05
  117   -2.00689867e-05
  118    8.90404178e-06
  119   -3.96810000e-04
  120   -1.75110000e-04
  121   -1.55322892e-04
  122    1.15600640e-04
  123    4.41831273e-06
  124    8.10860000e-04
  125   -1.12840000e-03
  126    3.70664566e-04
  127    4.39380559e-05
  128   -3.98910544e-04
Sym=     7a  
Ene=   -11.2270
Spin= Alpha
Occup=    2.00000
    1   -4.59400000e-05
    2   -2.87750000e-04
    3    1.43976000e-03
    4    4.49022777e-06
    5   -2.77910515e-05
    6    2.91918038e-05
    7   -1.51974406e-05
    8    2.70075914e-04
    9   -3.34222683e-04
   10   -8.07659239e-06
   11   -2.00161619e-05
   12   -6.39649622e-06
   13    1.81572831e-05
   14   -2.09407503e-05
   15    9.98977600e-01
   16    9.21034000e-03
   17   -1.27939000e-02
   18    2.29063359e-05
   19   -1.30171769e-04
   20    6.17229692e-05
   21   -2.90538244e-04
   22    1.65683456e-03
   23   -1.70797407e-03
   24    5.55045595e-05
   25   -2.17661242e-04
   26   -4.88158804e-04
   27    3.97906831e-05
   28   -3.26528520e-04
   29    4.59288000e-03
   30   -2.72200000e-05
   31   -6.96960000e-04
   32    2.08284340e-05
   33   -8.65020915e-06
   34   -7.28585058e-06
   35    4.79888154e-04
   36   -7.14838824e-05
   37   -3.28578358e-04
   38   -2.63790149e-05
   39    3.10239052e-06
   40   -8.70967052e-05
   41    1.70317719e-06
   42   -1.02110180e-04
   43    7.42185000e-03
   44    1.39900000e-05
   45   -7.87930000e-04
   46   -2.34597524e-05
   47    8.97678188e-06
   48    8.05188815e-06
   49   -4.82356267e-04
   50    1.76517062e-04
   51    2.05674644e-04
   52    5.41759877e-05
   53   -8.25553009e-05
   54   -1.03765691e-04
   55    1.17712038e-05
   56   -1.60540077e-05
   57   -6.01061100e-02
   58   -1.27150000e-03
   59    4.08600000e-03
   60   -8.02266082e-05
   61   -6.58135931e-06
   62    6.82741176e-05
   63    1.73384243e-03
   64   -4.77669655e-04
   65   -9.10381566e-04
   66   -4.06614592e-06
   67    2.37953631e-04
   68    2.00830993e-04
   69   -1.24867510e-04
   70    2.10468847e-04
   71   -4.07571800e-02
   72   -1.09807000e-03
   73    3.81795000e-03
   74    1.00339953e-04
   75   -6.41987139e-05
   76    5.26046941e-06
   77   -1.75941025e-03
   78    6.90677510e-04
   79    6.41567785e-04
   80    4.44662960e-05
   81    1.94658398e-04
   82    1.90637450e-04
   83   -1.32838136e-04