[Molden Format]
[N_Atoms]
                   13
[Atoms] (AU)
C1          1      6          53.22368277     51.28269971     54.76512103
C2          2      6          52.62011747     54.91839293     50.98271892
C3          3      6          55.03232074     51.52695815     52.87148128
C4          4      6          51.09909770     52.84528779     54.76135102
C5          5      6          50.80012035     54.63511354     52.86176242
C6          6      6          54.73912029     53.35822371     51.00803369
O7          7      8          53.39892652     49.50477356     56.63737285
H8          8      1          55.12826592     48.86415641     56.76909432
H9          9      1          56.65941462     50.28814441     52.84815828
H10        10      1          56.18257814     53.55496120     49.57133350
H11        11      1          52.40440334     56.34199921     49.53037746
H12        12      1          49.12933411     55.81497727     52.86163203
H13        13      1          49.69097773     52.63837789     56.23368956
[5D]
[7F]
[9G]
[Charge] (Mulliken)
  0.13521788908369103     
  -8.1486616033219050E-002
  -1.2731317924493446E-002
 -0.13671275410017092     
   1.4693229045589895E-002
  -8.2878241450603518E-002
 -0.38947045665131697     
  0.26079157140341458     
   6.7346957430542309E-002
   6.2983629001875041E-002
   5.4380596176615614E-002
   4.5981555638139437E-002
   6.1883958376707682E-002
[GTO] (AU)
   1
   s   9
  0.666500000E+04  0.692000179E-03
  0.100000000E+04  0.532900138E-02
  0.228000000E+03  0.270770070E-01
  0.647100000E+02  0.101718026E+00
  0.210600000E+02  0.274740071E+00
  0.749500000E+01  0.448564116E+00
  0.279700000E+01  0.285074074E+00
  0.521500000E+00  0.152040039E-01
  0.159600000E+00 -0.319100083E-02
   s   9
  0.666500000E+04 -0.146000064E-03
  0.100000000E+04 -0.115400051E-02
  0.228000000E+03 -0.572500252E-02
  0.647100000E+02 -0.233120103E-01
  0.210600000E+02 -0.639550281E-01
  0.749500000E+01 -0.149981066E+00
  0.279700000E+01 -0.127262056E+00
  0.521500000E+00  0.544529240E+00
  0.159600000E+00  0.580496255E+00
   s   1
  0.159600000E+00  0.100000000E+01
   p   4
  0.943900000E+01  0.381090213E-01
  0.200200000E+01  0.209480117E+00
  0.545600000E+00  0.508557284E+00
  0.151700000E+00  0.468842262E+00
   p   1
  0.151700000E+00  0.100000000E+01
   d   1
  0.550000000E+00  0.100000000E+01
 
   2
   s   9
  0.666500000E+04  0.692000179E-03
  0.100000000E+04  0.532900138E-02
  0.228000000E+03  0.270770070E-01
  0.647100000E+02  0.101718026E+00
  0.210600000E+02  0.274740071E+00
  0.749500000E+01  0.448564116E+00
  0.279700000E+01  0.285074074E+00
  0.521500000E+00  0.152040039E-01
  0.159600000E+00 -0.319100083E-02
   s   9
  0.666500000E+04 -0.146000064E-03
  0.100000000E+04 -0.115400051E-02
  0.228000000E+03 -0.572500252E-02
  0.647100000E+02 -0.233120103E-01
  0.210600000E+02 -0.639550281E-01
  0.749500000E+01 -0.149981066E+00
  0.279700000E+01 -0.127262056E+00
  0.521500000E+00  0.544529240E+00
  0.159600000E+00  0.580496255E+00
   s   1
  0.159600000E+00  0.100000000E+01
   p   4
  0.943900000E+01  0.381090213E-01
  0.200200000E+01  0.209480117E+00
  0.545600000E+00  0.508557284E+00
  0.151700000E+00  0.468842262E+00
   p   1
  0.151700000E+00  0.100000000E+01
   d   1
  0.550000000E+00  0.100000000E+01
 
   3
   s   9
  0.666500000E+04  0.692000179E-03
  0.100000000E+04  0.532900138E-02
  0.228000000E+03  0.270770070E-01
  0.647100000E+02  0.101718026E+00
  0.210600000E+02  0.274740071E+00
  0.749500000E+01  0.448564116E+00
  0.279700000E+01  0.285074074E+00
  0.521500000E+00  0.152040039E-01
  0.159600000E+00 -0.319100083E-02
   s   9
  0.666500000E+04 -0.146000064E-03
  0.100000000E+04 -0.115400051E-02
  0.228000000E+03 -0.572500252E-02
  0.647100000E+02 -0.233120103E-01
  0.210600000E+02 -0.639550281E-01
  0.749500000E+01 -0.149981066E+00
  0.279700000E+01 -0.127262056E+00
  0.521500000E+00  0.544529240E+00
  0.159600000E+00  0.580496255E+00
   s   1
  0.159600000E+00  0.100000000E+01
   p   4
  0.943900000E+01  0.381090213E-01
  0.200200000E+01  0.209480117E+00
  0.545600000E+00  0.508557284E+00
  0.151700000E+00  0.468842262E+00
   p   1
  0.151700000E+00  0.100000000E+01
   d   1
  0.550000000E+00  0.100000000E+01
 
   4
   s   9
  0.666500000E+04  0.692000179E-03
  0.100000000E+04  0.532900138E-02
  0.228000000E+03  0.270770070E-01
  0.647100000E+02  0.101718026E+00
  0.210600000E+02  0.274740071E+00
  0.749500000E+01  0.448564116E+00
  0.279700000E+01  0.285074074E+00
  0.521500000E+00  0.152040039E-01
  0.159600000E+00 -0.319100083E-02
   s   9
  0.666500000E+04 -0.146000064E-03
  0.100000000E+04 -0.115400051E-02
  0.228000000E+03 -0.572500252E-02
  0.647100000E+02 -0.233120103E-01
  0.210600000E+02 -0.639550281E-01
  0.749500000E+01 -0.149981066E+00
  0.279700000E+01 -0.127262056E+00
  0.521500000E+00  0.544529240E+00
  0.159600000E+00  0.580496255E+00
   s   1
  0.159600000E+00  0.100000000E+01
   p   4
  0.943900000E+01  0.381090213E-01
  0.200200000E+01  0.209480117E+00
  0.545600000E+00  0.508557284E+00
  0.151700000E+00  0.468842262E+00
   p   1
  0.151700000E+00  0.100000000E+01
   d   1
  0.550000000E+00  0.100000000E+01
 
   5
   s   9
  0.666500000E+04  0.692000179E-03
  0.100000000E+04  0.532900138E-02
  0.228000000E+03  0.270770070E-01
  0.647100000E+02  0.101718026E+00
  0.210600000E+02  0.274740071E+00
  0.749500000E+01  0.448564116E+00
  0.279700000E+01  0.285074074E+00
  0.521500000E+00  0.152040039E-01
  0.159600000E+00 -0.319100083E-02
   s   9
  0.666500000E+04 -0.146000064E-03
  0.100000000E+04 -0.115400051E-02
  0.228000000E+03 -0.572500252E-02
  0.647100000E+02 -0.233120103E-01
  0.210600000E+02 -0.639550281E-01
  0.749500000E+01 -0.149981066E+00
  0.279700000E+01 -0.127262056E+00
  0.521500000E+00  0.544529240E+00
  0.159600000E+00  0.580496255E+00
   s   1
  0.159600000E+00  0.100000000E+01
   p   4
  0.943900000E+01  0.381090213E-01
  0.200200000E+01  0.209480117E+00
  0.545600000E+00  0.508557284E+00
  0.151700000E+00  0.468842262E+00
   p   1
  0.151700000E+00  0.100000000E+01
   d   1
  0.550000000E+00  0.100000000E+01
 
   6
   s   9
  0.666500000E+04  0.692000179E-03
  0.100000000E+04  0.532900138E-02
  0.228000000E+03  0.270770070E-01
  0.647100000E+02  0.101718026E+00
  0.210600000E+02  0.274740071E+00
  0.749500000E+01  0.448564116E+00
  0.279700000E+01  0.285074074E+00
  0.521500000E+00  0.152040039E-01
  0.159600000E+00 -0.319100083E-02
   s   9
  0.666500000E+04 -0.146000064E-03
  0.100000000E+04 -0.115400051E-02
  0.228000000E+03 -0.572500252E-02
  0.647100000E+02 -0.233120103E-01
  0.210600000E+02 -0.639550281E-01
  0.749500000E+01 -0.149981066E+00
  0.279700000E+01 -0.127262056E+00
  0.521500000E+00  0.544529240E+00
  0.159600000E+00  0.580496255E+00
   s   1
  0.159600000E+00  0.100000000E+01
   p   4
  0.943900000E+01  0.381090213E-01
  0.200200000E+01  0.209480117E+00
  0.545600000E+00  0.508557284E+00
  0.151700000E+00  0.468842262E+00
   p   1
  0.151700000E+00  0.100000000E+01
   d   1
  0.550000000E+00  0.100000000E+01
 
   7
   s   9
  0.117200000E+05  0.710000250E-03
  0.175900000E+04  0.547000193E-02
  0.400800000E+03  0.278370098E-01
  0.113700000E+03  0.104800037E+00
  0.370300000E+02  0.283062100E+00
  0.132700000E+02  0.448719158E+00
  0.502500000E+01  0.270952096E+00
  0.101300000E+01  0.154580054E-01
  0.302300000E+00 -0.258500091E-02
   s   9
  0.117200000E+05 -0.160000015E-03
  0.175900000E+04 -0.126300012E-02
  0.400800000E+03 -0.626700060E-02
  0.113700000E+03 -0.257160025E-01
  0.370300000E+02 -0.709240068E-01
  0.132700000E+02 -0.165411016E+00
  0.502500000E+01 -0.116955011E+00
  0.101300000E+01  0.557368054E+00
  0.302300000E+00  0.572759055E+00
   s   1
  0.302300000E+00  0.100000000E+01
   p   4
  0.177000000E+02  0.430179924E-01
  0.385400000E+01  0.228912960E+00
  0.104600000E+01  0.508727910E+00
  0.275300000E+00  0.460530919E+00
   p   1
  0.275300000E+00  0.100000000E+01
   d   1
  0.118500000E+01  0.100000000E+01
 
   8
   s   4
  0.130100000E+02  0.196849900E-01
  0.196200000E+01  0.137976930E+00
  0.444600000E+00  0.478147757E+00
  0.122000000E+00  0.501239745E+00
   s   1
  0.122000000E+00  0.100000000E+01
   p   1
  0.727000000E+00  0.100000000E+01
 
   9
   s   4
  0.130100000E+02  0.196849900E-01
  0.196200000E+01  0.137976930E+00
  0.444600000E+00  0.478147757E+00
  0.122000000E+00  0.501239745E+00
   s   1
  0.122000000E+00  0.100000000E+01
   p   1
  0.727000000E+00  0.100000000E+01
 
  10
   s   4
  0.130100000E+02  0.196849900E-01
  0.196200000E+01  0.137976930E+00
  0.444600000E+00  0.478147757E+00
  0.122000000E+00  0.501239745E+00
   s   1
  0.122000000E+00  0.100000000E+01
   p   1
  0.727000000E+00  0.100000000E+01
 
  11
   s   4
  0.130100000E+02  0.196849900E-01
  0.196200000E+01  0.137976930E+00
  0.444600000E+00  0.478147757E+00
  0.122000000E+00  0.501239745E+00
   s   1
  0.122000000E+00  0.100000000E+01
   p   1
  0.727000000E+00  0.100000000E+01
 
  12
   s   4
  0.130100000E+02  0.196849900E-01
  0.196200000E+01  0.137976930E+00
  0.444600000E+00  0.478147757E+00
  0.122000000E+00  0.501239745E+00
   s   1
  0.122000000E+00  0.100000000E+01
   p   1
  0.727000000E+00  0.100000000E+01
 
  13
   s   4
  0.130100000E+02  0.196849900E-01
  0.196200000E+01  0.137976930E+00
  0.444600000E+00  0.478147757E+00
  0.122000000E+00  0.501239745E+00
   s   1
  0.122000000E+00  0.100000000E+01
   p   1
  0.727000000E+00  0.100000000E+01
 
[MO]
Sym=     1a  
Ene=   -20.6070
Spin= Alpha
Occup=    2.00000
   1         0.00028459
   2         0.00104687
   3        -0.00042574
   4         0.00000632
   5        -0.00022749
   6         0.00024955
   7         0.00114271
   8        -0.00356569
   9         0.00323053
  10        -0.00009255
  11        -0.00013440
  12         0.00015635
  13         0.00016525
  14        -0.00009525
  15        -0.00004590
  16        -0.00016513
  17         0.00054649
  18        -0.00001769
  19         0.00004325
  20        -0.00003556
  21        -0.00001994
  22        -0.00035203
  23         0.00042831
  24         0.00002091
  25         0.00001378
  26        -0.00005448
  27        -0.00003196
  28        -0.00000424
  29        -0.00007856
  30        -0.00029354
  31         0.00228411
  32         0.00010153
  33        -0.00003431
  34        -0.00005004
  35        -0.00120608
  36         0.00170853
  37        -0.00093598
  38        -0.00021328
  39         0.00002100
  40         0.00011194
  41         0.00010872
  42        -0.00026876
  43        -0.00012889
  44        -0.00046178
  45         0.00342951
  46        -0.00009341
  47         0.00001608
  48         0.00005325
  49         0.00115041
  50         0.00066612
  51        -0.00178603
  52         0.00008755
  53        -0.00028284
  54         0.00001130
  55         0.00014000
  56         0.00007661
  57         0.00000305
  58        -0.00000470
  59        -0.00199587
  60        -0.00004236
  61         0.00005927
  62        -0.00003582
  63        -0.00025078
  64         0.00046079
  65        -0.00034958
  66         0.00005879
  67        -0.00004262
  68        -0.00003157
  69        -0.00001370
  70         0.00006426
  71         0.00000112
  72        -0.00000365
  73        -0.00184350
  74         0.00004452
  75        -0.00000189
  76        -0.00004022
  77        -0.00009640
  78         0.00049551
  79        -0.00047346
  80        -0.00003479
  81         0.00007216
  82        -0.00003394
  83        -0.00003810
  84        -0.00006751
  85         1.00091372
  86         0.00420954
  87        -0.00672874
  88         0.00148456
  89         0.00080478
  90        -0.00134089
  91        -0.00105538
  92        -0.00165004
  93         0.00218850
  94        -0.00007108
  95         0.00001463
  96         0.00012339
  97         0.00008349
  98        -0.00003929
  99         0.00039078
 100        -0.00049404
 101         0.00046332
 102        -0.00013606
 103        -0.00004043
 104        -0.00008919
 105         0.00056727
 106         0.00012124
 107        -0.00011045
 108         0.00002508
 109         0.00019960
 110        -0.00009138
 111        -0.00002568
 112        -0.00001021
 113         0.00003197
 114         0.00001667
 115         0.00011988
 116         0.00000195
 117         0.00001922
 118        -0.00002363
 119         0.00017662
 120        -0.00010684
 121         0.00003591
 122        -0.00003047
 123         0.00000658
 124        -0.00010998
 125         0.00053023
 126        -0.00010769
 127        -0.00002009
 128         0.00011754
Sym=     2a  
Ene=   -11.3340
Spin= Alpha
Occup=    2.00000
   1         1.00141617
   2         0.00841138
   3        -0.01355631
   4         0.00003457
   5        -0.00100665
   6         0.00097206
   7         0.00019995
   8        -0.00342505
   9         0.00407333
  10         0.00009485
  11        -0.00022315
  12        -0.00050102
  13        -0.00001913
  14        -0.00024053
  15        -0.00025465
  16        -0.00041378
  17         0.00340450
  18         0.00000365
  19         0.00001393
  20        -0.00001801
  21         0.00032394
  22        -0.00121418
  23         0.00113897
  24        -0.00000126
  25        -0.00005607
  26        -0.00005830
  27         0.00002468
  28        -0.00006158
  29         0.00769470
  30        -0.00100887
  31         0.00697874
  32        -0.00000563
  33        -0.00005125
  34         0.00005795
  35        -0.00355404
  36         0.00185061
  37         0.00096415
  38        -0.00001779
  39         0.00001215
  40         0.00015903
  41         0.00003586
  42         0.00009228
  43         0.00782141
  44        -0.00088038
  45         0.00637715
  46         0.00004020
  47        -0.00006777
  48         0.00005308
  49         0.00274853
  50         0.00006808
  51        -0.00251978
  52        -0.00003492
  53         0.00000685
  54         0.00019311
  55         0.00004986
  56         0.00008387
  57         0.00007084
  58         0.00020258
  59        -0.00355722
  60        -0.00002288
  61        -0.00000126
  62         0.00002447
  63        -0.00129875
  64         0.00097766
  65        -0.00006045
  66        -0.00000943
  67         0.00005473
  68        -0.00004754
  69        -0.00004053
  70        -0.00004429
  71         0.00007763
  72         0.00017339
  73        -0.00344211
  74         0.00001310
  75        -0.00000084
  76        -0.00001325
  77         0.00140901
  78        -0.00007379
  79        -0.00108972
  80         0.00005914
  81        -0.00003014
  82        -0.00005389
  83        -0.00002544
  84         0.00004385
  85         0.00037487
  86         0.00185738
  87        -0.00415440
  88        -0.00011895
  89         0.00025855
  90        -0.00023224
  91         0.00010301
  92        -0.00123804
  93         0.00122765
  94        -0.00003332
  95         0.00000471
  96         0.00031558
  97         0.00004015
  98         0.00009682
  99         0.00053490
 100        -0.00068227
 101        -0.00012101
 102         0.00021704
 103        -0.00016682
 104         0.00034876
 105         0.00109550
 106        -0.00005511
 107         0.00002653
 108         0.00002983
 109        -0.00007033
 110        -0.00027904
 111        -0.00001546
 112        -0.00001966
 113         0.00003596
 114         0.00002007
 115         0.00040189
 116        -0.00001042
 117         0.00003209
 118        -0.00002896
 119        -0.00002700
 120        -0.00024581
 121         0.00002311
 122        -0.00003704
 123         0.00002347
 124         0.00032377
 125         0.00087802
 126         0.00004331
 127        -0.00003170
 128         0.00000374
Sym=     3a  
Ene=   -11.2750
Spin= Alpha
Occup=    2.00000
   1        -0.00043514
   2        -0.00011916
   3        -0.00058817
   4        -0.00000754
   5         0.00000578
   6         0.00001173
   7        -0.00043875
   8        -0.00010678
   9         0.00049026
  10        -0.00002457
  11         0.00001670
  12        -0.00004651
  13        -0.00000700
  14        -0.00007598
  15         0.04134351
  16        -0.00039921
  17         0.00303166
  18         0.00006825
  19         0.00001203
  20        -0.00007416
  21        -0.00078201
  22        -0.00078080
  23         0.00158564
  24        -0.00003404
  25         0.00017984
  26         0.00019804
  27        -0.00006747
  28         0.00012291
  29        -0.00056681
  30        -0.00032758
  31         0.00167066
  32         0.00003827
  33        -0.00002586
  34         0.00000182
  35        -0.00050873
  36         0.00035975
  37         0.00003438
  38         0.00000324
  39        -0.00003239
  40        -0.00004273
  41         0.00001093
  42        -0.00003656
  43         0.04715301
  44        -0.00031150
  45         0.00283234
  46         0.00001613
  47        -0.00009129
  48         0.00008950
  49         0.00038058
  50         0.00105929
  51        -0.00158879
  52        -0.00003954
  53         0.00010750
  54         0.00025277
  55        -0.00001404
  56         0.00015777
  57         0.99951560
  58         0.00885898
  59        -0.01222088
  60        -0.00009391
  61        -0.00005139
  62         0.00004907
  63        -0.00161482
  64         0.00125109
  65        -0.00008086
  66        -0.00005304
  67        -0.00024565
  68        -0.00033714
  69         0.00014265
  70        -0.00039332
  71         0.00573972
  72        -0.00004061
  73        -0.00073665
  74         0.00000783
  75         0.00001492
  76        -0.00001753
  77         0.00010779
  78         0.00035132
  79        -0.00051042
  80        -0.00002126
  81        -0.00006647
  82         0.00000084
  83         0.00005419
  84        -0.00005099
  85        -0.00000901
  86        -0.00003379
  87        -0.00000622
  88         0.00000031
  89        -0.00001205
  90         0.00001235
  91        -0.00001458
  92         0.00004122
  93        -0.00004094
  94        -0.00000122
  95         0.00000331
  96        -0.00000012
  97        -0.00000267
  98        -0.00000460
  99         0.00003449
 100         0.00000957
 101        -0.00000455
 102         0.00000514
 103        -0.00001029
 104        -0.00003816
 105         0.00018367
 106         0.00001210
 107        -0.00001015
 108         0.00000027
 109        -0.00008700
 110         0.00001421
 111         0.00000018
 112         0.00000246
 113        -0.00000156
 114         0.00023706
 115         0.00040768
 116         0.00001342
 117        -0.00007357
 118         0.00006927
 119        -0.00078909
 120         0.00112392
 121        -0.00041305
 122         0.00029990
 123        -0.00000329
 124         0.00021277
 125         0.00040164
 126         0.00006909
 127         0.00000294
 128        -0.00006397
Sym=     4a  
Ene=   -11.2720
Spin= Alpha
Occup=    2.00000
   1        -0.00046692
   2        -0.00012923
   3        -0.00053083
   4         0.00000779
   5        -0.00001060
   6        -0.00000008
   7         0.00064940
   8        -0.00042808
   9        -0.00002683
  10         0.00003824
  11        -0.00005484
  12        -0.00005825
  13         0.00000263
  14         0.00000392
  15         0.05244711
  16        -0.00029143
  17         0.00280227
  18        -0.00009532
  19         0.00007156
  20         0.00000091
  21         0.00109632
  22        -0.00135930
  23         0.00062486
  24         0.00004330
  25         0.00010237
  26         0.00017563
  27        -0.00004974
  28         0.00021846
  29         0.05070654
  30        -0.00026235
  31         0.00267836
  32         0.00000494
  33        -0.00007879
  34         0.00009559
  35        -0.00075204
  36         0.00146439
  37        -0.00108401
  38        -0.00003051
  39         0.00010596
  40         0.00025057
  41        -0.00000510
  42         0.00015799
  43        -0.00169462
  44        -0.00034209
  45         0.00166506
  46        -0.00003374
  47        -0.00000563
  48         0.00003508
  49         0.00047420
  50        -0.00003763
  51        -0.00038395
  52         0.00000083
  53        -0.00003039
  54        -0.00004796
  55         0.00000818
  56        -0.00004086
  57        -0.00791335
  58        -0.00018729
  59        -0.00047561
  60        -0.00001417
  61         0.00002133
  62        -0.00001178
  63        -0.00019080
  64         0.00041433
  65        -0.00031719
  66        -0.00002288
  67        -0.00006062
  68         0.00000265
  69         0.00004979
  70        -0.00004477
  71         0.99879745
  72         0.00886026
  73        -0.01213381
  74        -0.00007452
  75        -0.00011248
  76        -0.00000405
  77         0.00143655
  78         0.00035713
  79        -0.00146950
  80         0.00002360
  81        -0.00034613
  82        -0.00033946
  83         0.00014506
  84        -0.00027518
  85        -0.00000909
  86        -0.00003578
  87        -0.00000093
  88         0.00000820
  89        -0.00001400
  90         0.00001053
  91        -0.00007456
  92         0.00005498
  93        -0.00001728
  94         0.00000356
  95        -0.00000146
  96         0.00000177
  97        -0.00000049
  98         0.00000339
  99         0.00003682
 100         0.00000658
 101        -0.00001013
 102         0.00000169
 103        -0.00001064
 104         0.00022045
 105         0.00039272
 106        -0.00007424
 107         0.00005557
 108         0.00001271
 109        -0.00074140
 110         0.00109251
 111         0.00033738
 112         0.00005127
 113        -0.00034128
 114         0.00022031
 115         0.00040848
 116         0.00000618
 117        -0.00006383
 118         0.00007089
 119        -0.00007301
 120         0.00001026
 121         0.00000482
 122        -0.00000369
 123        -0.00000234
 124        -0.00004194
 125         0.00018678
 126        -0.00001012
 127         0.00000000
 128         0.00001015
Sym=     5a  
Ene=   -11.2620
Spin= Alpha
Occup=    2.00000
   1        -0.00849149
   2        -0.00066322
   3         0.00298204
   4         0.00012280
   5        -0.00011667
   6         0.00004733
   7        -0.00209725
   8         0.00139933
   9         0.00013166
  10         0.00004950
  11         0.00015943
  12         0.00017974
  13        -0.00010325
  14         0.00026333
  15        -0.01919104
  16        -0.00025269
  17        -0.00025856
  18         0.00000120
  19         0.00001474
  20        -0.00001808
  21        -0.00012393
  22         0.00026904
  23        -0.00018739
  24         0.00004672
  25        -0.00006723
  26        -0.00009416
  27         0.00000532
  28        -0.00001051
  29        -0.00357495
  30        -0.00027989
  31         0.00074251
  32        -0.00000627
  33        -0.00002643
  34         0.00003852
  35        -0.00035150
  36        -0.00043816
  37         0.00083867
  38         0.00000505
  39        -0.00009928
  40        -0.00004486
  41         0.00005748
  42        -0.00006242
  43         1.00032691
  44         0.00941420
  45        -0.01323476
  46         0.00007987
  47        -0.00018051
  48        -0.00008667
  49        -0.00175865
  50         0.00025952
  51         0.00141459
  52         0.00005599
  53        -0.00034286
  54        -0.00034119
  55         0.00013715
  56        -0.00024991
  57        -0.04708387
  58        -0.00117052
  59         0.00378301
  60        -0.00001512
  61         0.00007561
  62        -0.00007110
  63         0.00102007
  64        -0.00140231
  65         0.00077400
  66        -0.00000617
  67         0.00011235
  68         0.00026428
  69        -0.00002582
  70         0.00021442
  71         0.00236923
  72        -0.00021696
  73         0.00096809
  74         0.00001287
  75         0.00003353
  76        -0.00005083
  77         0.00000907
  78        -0.00025209
  79         0.00027051
  80        -0.00000100
  81        -0.00001278
  82        -0.00002531
  83         0.00000645
  84        -0.00002557
  85        -0.00003045
  86        -0.00012700
  87         0.00029001
  88        -0.00000720
  89         0.00001027
  90         0.00000656
  91         0.00023300
  92        -0.00006733
  93        -0.00011597
  94        -0.00000887
  95        -0.00000490
  96        -0.00003741
  97         0.00000850
  98        -0.00003646
  99        -0.00010800
 100         0.00011082
 101         0.00005451
 102         0.00001276
 103        -0.00002476
 104        -0.00010327
 105         0.00012799
 106         0.00001361
 107         0.00000124
 108        -0.00001711
 109        -0.00005432
 110         0.00009869
 111         0.00000166
 112         0.00000177
 113        -0.00000202
 114        -0.00009953
 115         0.00000635
 116        -0.00001286
 117         0.00001011
 118        -0.00000118
 119         0.00032343
 120         0.00026599
 121         0.00012636
 122        -0.00008338
 123        -0.00000095
 124        -0.00075784
 125         0.00111980
 126        -0.00035113
 127        -0.00005099
 128         0.00037081
Sym=     6a  
Ene=   -11.2600
Spin= Alpha
Occup=    2.00000
   1         0.00050308
   2        -0.00024291
   3         0.00125668
   4         0.00001526
   5        -0.00002322
   6         0.00001708
   7        -0.00018234
   8         0.00029231
   9        -0.00020118
  10        -0.00000571
  11        -0.00003924
  12        -0.00001822
  13         0.00002644
  14        -0.00003115
  15         0.99694461
  16         0.00918784
  17        -0.01274421
  18        -0.00003777
  19        -0.00014346
  20         0.00001223
  21        -0.00025710
  22         0.00167946
  23        -0.00162835
  24         0.00005215
  25        -0.00022699
  26        -0.00048039
  27         0.00001771
  28        -0.00029962
  29        -0.06950540
  30        -0.00071545
  31         0.00022781
  32         0.00003966
  33        -0.00000928
  34        -0.00001637
  35         0.00034807
  36        -0.00003587
  37        -0.00026613
  38        -0.00002637
  39         0.00001756
  40        -0.00006490
  41        -0.00001066
  42        -0.00007473
  43         0.01700770
  44         0.00010835
  45        -0.00091215
  46        -0.00002314
  47         0.00000422
  48         0.00000769
  49        -0.00054187
  50         0.00026612
  51         0.00017697
  52         0.00005125
  53        -0.00007882
  54        -0.00009650
  55         0.00001031
  56        -0.00000697
  57        -0.04246796
  58        -0.00109286
  59         0.00383603
  60        -0.00007016
  61        -0.00000666
  62         0.00008009
  63         0.00170258
  64        -0.00043986
  65        -0.00094813
  66        -0.00000078
  67         0.00024337
  68         0.00019194
  69        -0.00012622
  70         0.00020819
  71        -0.04974695
  72        -0.00111465
  73         0.00371384
  74         0.00009742
  75        -0.00005689
  76         0.00000797
  77        -0.00173283
  78         0.00074948
  79         0.00057415
  80         0.00004578
  81         0.00018411
  82         0.00017162
  83        -0.00012265
  84         0.00023418
  85        -0.00000116
  86        -0.00000439
  87        -0.00000445
  88         0.00000323
  89        -0.00000297
  90         0.00000174
  91        -0.00001199
  92        -0.00000674
  93         0.00000914
  94         0.00000019
  95         0.00000100
  96         0.00000350
  97        -0.00000108
  98         0.00000059
  99         0.00002518
 100         0.00002677
 101        -0.00000113
 102         0.00000565
 103        -0.00000980
 104        -0.00007114
 105        -0.00006872
 106        -0.00001066
 107         0.00000679
 108        -0.00000171
 109         0.00030432
 110         0.00023981
 111        -0.00009645
 112        -0.00002502
 113         0.00011172
 114        -0.00084510
 115         0.00106460
 116        -0.00005622
 117         0.00036929
 118        -0.00036882
 119         0.00032881
 120         0.00026328
 121         0.00012640
 122        -0.00009579
 123         0.00001439
 124        -0.00012422
 125         0.00003142
 126        -0.00001815
 127        -0.00000421
 128         0.00001865
Sym=     7a  
Ene=   -11.2600
Spin= Alpha
Occup=    2.00000
   1         0.00845558
   2         0.00070448
   3        -0.00311635
   4         0.00009673
   5         0.00006279
   6        -0.00016534
   7        -0.00175048
   8        -0.00008580
   9         0.00163185
  10         0.00003724
  11        -0.00027684
  12        -0.00019120
  13         0.00011840
  14        -0.00015635
  15        -0.06665944
  16        -0.00053786
  17         0.00132400
  18         0.00000180
  19        -0.00000863
  20         0.00001108
  21        -0.00001493
  22        -0.00030498
  23         0.00038683
  24         0.00001866
  25         0.00001959
  26         0.00012719
  27         0.00000379
  28         0.00011953
  29        -0.99788218
  30        -0.00935623
  31         0.01303473
  32         0.00024298
  33        -0.00002917
  34        -0.00013804
  35        -0.00197525
  36         0.00103039
  37         0.00054488
  38         0.00004636
  39         0.00026608
  40         0.00033600
  41        -0.00011121
  42         0.00039331
  43        -0.00465395
  44         0.00021434
  45        -0.00061429
  46        -0.00001144
  47         0.00003111
  48        -0.00003097
  49        -0.00050949
  50         0.00065211
  51        -0.00032289
  52         0.00002215
  53         0.00007252
  54         0.00005300
  55        -0.00005107
  56         0.00009956
  57         0.00230533
  58         0.00031809
  59        -0.00119059
  60         0.00003466
  61        -0.00004997
  62         0.00002389
  63        -0.00020251
  64         0.00026936
  65        -0.00015419
  66        -0.00000188
  67        -0.00000233
  68         0.00000534
  69         0.00000460
  70        -0.00000072
  71         0.05488458